<?xml version="1.0" encoding="UTF-8"?>

<!-- generated on 2026-05-30T18:21:39.498300+00:00 by Eclipse SUMO sumo 1.26.0
<sumoConfiguration xmlns:xsi="http://www.w3.org/2001/XMLSchema-instance" xsi:noNamespaceSchemaLocation="http://sumo.dlr.de/xsd/sumoConfiguration.xsd">

    <input>
        <net-file value="manhattan.net.xml"/>
        <route-files value="routes.rou.xml,background.rou.xml"/>
        <additional-files value="mosaic_types.add.xml"/>
    </input>

    <output>
        <tripinfo-output value="/home/netsim/opt/tpnpr/tripinfo.xml"/>
    </output>

    <time>
        <begin value="0"/>
        <end value="3600"/>
        <step-length value="1.00"/>
    </time>

    <processing>
        <ignore-route-errors value="true"/>
        <time-to-teleport value="0"/>
    </processing>

    <report>
        <verbose value="true"/>
        <no-step-log value="true"/>
    </report>

    <emissions>
        <device.emissions.probability value="1.0"/>
    </emissions>

    <traci_server>
        <remote-port value="37275"/>
    </traci_server>

    <random_number>
        <seed value="100000"/>
    </random_number>

</sumoConfiguration>
-->

<tripinfos xmlns:xsi="http://www.w3.org/2001/XMLSchema-instance" xsi:noNamespaceSchemaLocation="http://sumo.dlr.de/xsd/tripinfo_file.xsd">
    <tripinfo id="13" depart="26.00" departLane="-E15_0" departPos="5.10" departSpeed="0.00" departDelay="0.00" arrival="71.00" arrivalLane="-E15_0" arrivalPos="479.20" arrivalSpeed="11.60" duration="45.00" routeLength="474.10" waitingTime="0.00" waitingCount="0" stopTime="0.00" timeLoss="5.35" rerouteNo="0" devices="tripinfo_13 emissions_13" vType="Car" speedFactor="0.88" vaporized="">
        <emissions CO_abs="413.33" CO2_abs="98253.99" HC_abs="2.76" PMx_abs="10.28" NOx_abs="33.24" fuel_abs="31852.67" electricity_abs="0.00"/>
    </tripinfo>
    <tripinfo id="flow_z3.1" depart="2.00" departLane="-E28_1" departPos="5.10" departSpeed="13.87" departDelay="0.33" arrival="85.00" arrivalLane="-E29_0" arrivalPos="266.06" arrivalSpeed="15.71" duration="83.00" routeLength="1186.43" waitingTime="0.00" waitingCount="0" stopTime="0.00" timeLoss="7.83" rerouteNo="0" devices="tripinfo_flow_z3.1 emissions_flow_z3.1" vType="Car" speedFactor="1.16" vaporized="">
        <emissions CO_abs="1605.16" CO2_abs="214740.08" HC_abs="10.76" PMx_abs="26.20" NOx_abs="77.80" fuel_abs="69615.93" electricity_abs="0.00"/>
    </tripinfo>
    <tripinfo id="22" depart="44.00" departLane="-E14_0" departPos="5.10" departSpeed="0.00" departDelay="0.00" arrival="99.00" arrivalLane="-E25_0" arrivalPos="279.20" arrivalSpeed="11.43" duration="55.00" routeLength="574.10" waitingTime="0.00" waitingCount="0" stopTime="0.00" timeLoss="5.64" rerouteNo="0" devices="tripinfo_22 emissions_22" vType="Car" speedFactor="0.85" vaporized="">
        <emissions CO_abs="471.12" CO2_abs="114066.97" HC_abs="3.15" PMx_abs="12.09" NOx_abs="38.75" fuel_abs="36979.06" electricity_abs="0.00"/>
    </tripinfo>
    <tripinfo id="flow_z3.0" depart="0.00" departLane="-E28_1" departPos="5.10" departSpeed="12.68" departDelay="0.00" arrival="104.00" arrivalLane="-E29_0" arrivalPos="266.06" arrivalSpeed="12.02" duration="104.00" routeLength="1186.43" waitingTime="0.00" waitingCount="0" stopTime="0.00" timeLoss="8.32" rerouteNo="0" devices="tripinfo_flow_z3.0 emissions_flow_z3.0" vType="Car" speedFactor="0.91" vaporized="">
        <emissions CO_abs="949.69" CO2_abs="201419.85" HC_abs="6.37" PMx_abs="24.73" NOx_abs="71.29" fuel_abs="65298.05" electricity_abs="0.00"/>
    </tripinfo>
    <tripinfo id="flow_z3.2" depart="4.00" departLane="-E28_1" departPos="5.10" departSpeed="13.74" departDelay="0.67" arrival="104.00" arrivalLane="-E29_1" arrivalPos="266.06" arrivalSpeed="13.42" duration="100.00" routeLength="1186.43" waitingTime="0.00" waitingCount="0" stopTime="0.00" timeLoss="11.73" rerouteNo="0" devices="tripinfo_flow_z3.2 emissions_flow_z3.2" vType="Car" speedFactor="0.99" vaporized="">
        <emissions CO_abs="1293.68" CO2_abs="215660.87" HC_abs="8.63" PMx_abs="22.64" NOx_abs="75.46" fuel_abs="69914.45" electricity_abs="0.00"/>
    </tripinfo>
    <tripinfo id="flow_z3.3" depart="5.00" departLane="-E28_1" departPos="5.10" departSpeed="10.42" departDelay="0.00" arrival="107.00" arrivalLane="-E29_0" arrivalPos="266.06" arrivalSpeed="13.14" duration="102.00" routeLength="1186.43" waitingTime="0.00" waitingCount="0" stopTime="0.00" timeLoss="13.69" rerouteNo="0" devices="tripinfo_flow_z3.3 emissions_flow_z3.3" vType="Car" speedFactor="0.99" vaporized="">
        <emissions CO_abs="1474.66" CO2_abs="237474.20" HC_abs="9.82" PMx_abs="23.93" NOx_abs="83.07" fuel_abs="76985.98" electricity_abs="0.00"/>
    </tripinfo>
    <tripinfo id="flow_z3.4" depart="7.00" departLane="-E28_1" departPos="5.10" departSpeed="11.71" departDelay="0.34" arrival="108.00" arrivalLane="-E29_0" arrivalPos="266.06" arrivalSpeed="13.97" duration="101.00" routeLength="1186.43" waitingTime="0.00" waitingCount="0" stopTime="0.00" timeLoss="14.40" rerouteNo="0" devices="tripinfo_flow_z3.4 emissions_flow_z3.4" vType="Car" speedFactor="1.01" vaporized="">
        <emissions CO_abs="1544.83" CO2_abs="243512.06" HC_abs="10.28" PMx_abs="23.93" NOx_abs="85.25" fuel_abs="78943.34" electricity_abs="0.00"/>
    </tripinfo>
    <tripinfo id="flow_z3.5" depart="9.00" departLane="-E28_1" departPos="5.10" departSpeed="12.78" departDelay="0.67" arrival="110.00" arrivalLane="-E29_1" arrivalPos="266.06" arrivalSpeed="14.32" duration="101.00" routeLength="1186.43" waitingTime="0.00" waitingCount="0" stopTime="0.00" timeLoss="18.43" rerouteNo="0" devices="tripinfo_flow_z3.5 emissions_flow_z3.5" vType="Car" speedFactor="1.06" vaporized="">
        <emissions CO_abs="1660.70" CO2_abs="251289.89" HC_abs="11.05" PMx_abs="24.11" NOx_abs="88.06" fuel_abs="81464.74" electricity_abs="0.00"/>
    </tripinfo>
    <tripinfo id="flow_z3.6" depart="10.00" departLane="-E28_1" departPos="5.10" departSpeed="9.98" departDelay="0.00" arrival="111.00" arrivalLane="-E29_0" arrivalPos="266.06" arrivalSpeed="14.58" duration="101.00" routeLength="1186.43" waitingTime="0.00" waitingCount="0" stopTime="0.00" timeLoss="21.66" rerouteNo="0" devices="tripinfo_flow_z3.6 emissions_flow_z3.6" vType="Car" speedFactor="1.10" vaporized="">
        <emissions CO_abs="1694.50" CO2_abs="255442.92" HC_abs="11.26" PMx_abs="23.73" NOx_abs="89.45" fuel_abs="82811.06" electricity_abs="0.00"/>
    </tripinfo>
    <tripinfo id="flow_z3.8" depart="14.00" departLane="-E28_1" departPos="5.10" departSpeed="10.71" departDelay="0.67" arrival="114.00" arrivalLane="-E29_0" arrivalPos="266.06" arrivalSpeed="14.30" duration="100.00" routeLength="1186.43" waitingTime="0.00" waitingCount="0" stopTime="0.00" timeLoss="17.68" rerouteNo="0" devices="tripinfo_flow_z3.8 emissions_flow_z3.8" vType="Car" speedFactor="1.07" vaporized="">
        <emissions CO_abs="1640.56" CO2_abs="252900.02" HC_abs="10.93" PMx_abs="25.52" NOx_abs="88.70" fuel_abs="81986.78" electricity_abs="0.00"/>
    </tripinfo>
    <tripinfo id="12" depart="24.00" departLane="E6_0" departPos="5.10" departSpeed="0.00" departDelay="0.00" arrival="128.00" arrivalLane="-E32_0" arrivalPos="266.06" arrivalSpeed="12.65" duration="104.00" routeLength="1239.52" waitingTime="0.00" waitingCount="0" stopTime="0.00" timeLoss="10.15" rerouteNo="0" devices="tripinfo_12 emissions_12" vType="Car" speedFactor="0.97" vaporized="">
        <emissions CO_abs="1237.58" CO2_abs="233395.45" HC_abs="8.28" PMx_abs="27.01" NOx_abs="81.62" fuel_abs="75663.90" electricity_abs="0.00"/>
    </tripinfo>
    <tripinfo id="21" depart="42.00" departLane="-E25_0" departPos="5.10" departSpeed="0.00" departDelay="0.00" arrival="131.00" arrivalLane="-E3_0" arrivalPos="483.20" arrivalSpeed="12.67" duration="89.00" routeLength="1079.36" waitingTime="0.00" waitingCount="0" stopTime="0.00" timeLoss="7.64" rerouteNo="0" devices="tripinfo_21 emissions_21" vType="Car" speedFactor="0.96" vaporized="">
        <emissions CO_abs="1104.78" CO2_abs="197370.71" HC_abs="7.38" PMx_abs="21.75" NOx_abs="68.58" fuel_abs="63985.01" electricity_abs="0.00"/>
    </tripinfo>
    <tripinfo id="30" depart="60.00" departLane="E9_0" departPos="5.10" departSpeed="0.00" departDelay="0.00" arrival="133.00" arrivalLane="E19_0" arrivalPos="283.20" arrivalSpeed="14.68" duration="73.00" routeLength="878.10" waitingTime="4.00" waitingCount="1" stopTime="0.00" timeLoss="16.85" rerouteNo="0" devices="tripinfo_30 emissions_30" vType="Car" speedFactor="1.13" vaporized="">
        <emissions CO_abs="1347.58" CO2_abs="204213.65" HC_abs="9.00" PMx_abs="19.49" NOx_abs="71.00" fuel_abs="66203.11" electricity_abs="0.00"/>
    </tripinfo>
    <tripinfo id="4" depart="8.00" departLane="-E39_0" departPos="5.10" departSpeed="0.00" departDelay="0.00" arrival="147.00" arrivalLane="-E10_0" arrivalPos="479.20" arrivalSpeed="11.51" duration="139.00" routeLength="1552.66" waitingTime="0.00" waitingCount="0" stopTime="0.00" timeLoss="13.34" rerouteNo="0" devices="tripinfo_4 emissions_4" vType="Car" speedFactor="0.90" vaporized="">
        <emissions CO_abs="1471.99" CO2_abs="297168.75" HC_abs="9.83" PMx_abs="32.18" NOx_abs="102.44" fuel_abs="96338.36" electricity_abs="0.00"/>
    </tripinfo>
    <tripinfo id="1" depart="2.00" departLane="-E29_0" departPos="5.10" departSpeed="0.00" departDelay="0.00" arrival="153.00" arrivalLane="-E24_0" arrivalPos="283.20" arrivalSpeed="13.87" duration="151.00" routeLength="1942.97" waitingTime="0.00" waitingCount="0" stopTime="0.00" timeLoss="15.25" rerouteNo="0" devices="tripinfo_1 emissions_1" vType="Car" speedFactor="1.04" vaporized="">
        <emissions CO_abs="2260.70" CO2_abs="363592.63" HC_abs="15.14" PMx_abs="41.68" NOx_abs="127.85" fuel_abs="117871.96" electricity_abs="0.00"/>
    </tripinfo>
    <tripinfo id="48" depart="96.00" departLane="E9_0" departPos="5.10" departSpeed="0.00" departDelay="0.00" arrival="158.00" arrivalLane="E10_0" arrivalPos="479.20" arrivalSpeed="14.02" duration="62.00" routeLength="772.65" waitingTime="0.00" waitingCount="0" stopTime="0.00" timeLoss="6.66" rerouteNo="0" devices="tripinfo_48 emissions_48" vType="Car" speedFactor="1.03" vaporized="">
        <emissions CO_abs="1101.61" CO2_abs="174759.97" HC_abs="7.35" PMx_abs="17.47" NOx_abs="60.01" fuel_abs="56654.69" electricity_abs="0.00"/>
    </tripinfo>
    <tripinfo id="23" depart="46.00" departLane="-E16_0" departPos="5.10" departSpeed="0.00" departDelay="0.00" arrival="162.00" arrivalLane="-E29_0" arrivalPos="266.06" arrivalSpeed="14.05" duration="116.00" routeLength="1384.98" waitingTime="2.00" waitingCount="1" stopTime="0.00" timeLoss="17.96" rerouteNo="0" devices="tripinfo_23 emissions_23" vType="Car" speedFactor="1.05" vaporized="">
        <emissions CO_abs="1786.77" CO2_abs="304929.63" HC_abs="11.95" PMx_abs="32.94" NOx_abs="105.81" fuel_abs="98854.11" electricity_abs="0.00"/>
    </tripinfo>
    <tripinfo id="flow_z1.2" depart="4.00" departLane="-E1_0" departPos="5.10" departSpeed="13.56" departDelay="0.67" arrival="165.00" arrivalLane="E19_1" arrivalPos="283.20" arrivalSpeed="15.32" duration="161.00" routeLength="2181.19" waitingTime="0.00" waitingCount="0" stopTime="0.00" timeLoss="22.43" rerouteNo="0" devices="tripinfo_flow_z1.2 emissions_flow_z1.2" vType="Car" speedFactor="1.14" vaporized="">
        <emissions CO_abs="2723.40" CO2_abs="381881.29" HC_abs="18.21" PMx_abs="45.11" NOx_abs="137.98" fuel_abs="123800.98" electricity_abs="0.00"/>
    </tripinfo>
    <tripinfo id="flow_z3.9" depart="15.00" departLane="-E28_1" departPos="5.10" departSpeed="7.03" departDelay="0.01" arrival="165.00" arrivalLane="-E29_0" arrivalPos="266.06" arrivalSpeed="15.73" duration="150.00" routeLength="1186.43" waitingTime="56.00" waitingCount="2" stopTime="0.00" timeLoss="77.97" rerouteNo="0" devices="tripinfo_flow_z3.9 emissions_flow_z3.9" vType="Car" speedFactor="1.21" vaporized="">
        <emissions CO_abs="1858.95" CO2_abs="353841.66" HC_abs="12.43" PMx_abs="27.90" NOx_abs="128.75" fuel_abs="114711.20" electricity_abs="0.00"/>
    </tripinfo>
    <tripinfo id="flow_z1.0" depart="0.00" departLane="-E1_0" departPos="5.10" departSpeed="13.81" departDelay="0.00" arrival="168.00" arrivalLane="E19_0" arrivalPos="283.20" arrivalSpeed="12.76" duration="168.00" routeLength="2181.19" waitingTime="0.00" waitingCount="0" stopTime="0.00" timeLoss="8.56" rerouteNo="0" devices="tripinfo_flow_z1.0 emissions_flow_z1.0" vType="Car" speedFactor="0.99" vaporized="">
        <emissions CO_abs="1943.97" CO2_abs="334759.82" HC_abs="13.07" PMx_abs="44.97" NOx_abs="120.68" fuel_abs="108525.31" electricity_abs="0.00"/>
    </tripinfo>
    <tripinfo id="16" depart="32.00" departLane="E10_0" departPos="5.10" departSpeed="0.00" departDelay="0.00" arrival="177.00" arrivalLane="E7_0" arrivalPos="466.06" arrivalSpeed="14.34" duration="145.00" routeLength="1801.77" waitingTime="3.00" waitingCount="1" stopTime="0.00" timeLoss="19.99" rerouteNo="0" devices="tripinfo_16 emissions_16" vType="Car" speedFactor="1.06" vaporized="">
        <emissions CO_abs="2281.49" CO2_abs="368831.77" HC_abs="15.25" PMx_abs="39.57" NOx_abs="129.18" fuel_abs="119570.28" electricity_abs="0.00"/>
    </tripinfo>
    <tripinfo id="flow_z1.3" depart="5.00" departLane="-E1_0" departPos="5.10" departSpeed="10.50" departDelay="0.00" arrival="177.00" arrivalLane="E19_0" arrivalPos="283.20" arrivalSpeed="14.01" duration="172.00" routeLength="2181.19" waitingTime="0.00" waitingCount="0" stopTime="0.00" timeLoss="17.56" rerouteNo="0" devices="tripinfo_flow_z1.3 emissions_flow_z1.3" vType="Car" speedFactor="1.03" vaporized="">
        <emissions CO_abs="2668.83" CO2_abs="399333.29" HC_abs="17.81" PMx_abs="43.76" NOx_abs="142.18" fuel_abs="129458.65" electricity_abs="0.00"/>
    </tripinfo>
    <tripinfo id="flow_z1.1" depart="2.00" departLane="-E1_0" departPos="5.10" departSpeed="13.03" departDelay="0.33" arrival="181.00" arrivalLane="E19_0" arrivalPos="283.20" arrivalSpeed="12.15" duration="179.00" routeLength="2181.19" waitingTime="0.00" waitingCount="0" stopTime="0.00" timeLoss="10.25" rerouteNo="0" devices="tripinfo_flow_z1.1 emissions_flow_z1.1" vType="Car" speedFactor="0.94" vaporized="">
        <emissions CO_abs="1882.60" CO2_abs="358044.15" HC_abs="12.63" PMx_abs="46.00" NOx_abs="128.19" fuel_abs="116073.88" electricity_abs="0.00"/>
    </tripinfo>
    <tripinfo id="flow_z3.7" depart="12.00" departLane="-E28_1" departPos="5.10" departSpeed="9.90" departDelay="0.34" arrival="186.00" arrivalLane="-E29_0" arrivalPos="266.06" arrivalSpeed="12.09" duration="174.00" routeLength="1186.43" waitingTime="62.00" waitingCount="1" stopTime="0.00" timeLoss="76.89" rerouteNo="0" devices="tripinfo_flow_z3.7 emissions_flow_z3.7" vType="Car" speedFactor="0.90" vaporized="">
        <emissions CO_abs="1236.69" CO2_abs="346549.98" HC_abs="8.25" PMx_abs="25.65" NOx_abs="124.99" fuel_abs="112347.75" electricity_abs="0.00"/>
    </tripinfo>
    <tripinfo id="11" depart="22.00" departLane="-E33_0" departPos="5.10" departSpeed="0.00" departDelay="0.00" arrival="187.00" arrivalLane="-E2_0" arrivalPos="479.20" arrivalSpeed="13.55" duration="165.00" routeLength="2093.43" waitingTime="0.00" waitingCount="0" stopTime="0.00" timeLoss="15.60" rerouteNo="0" devices="tripinfo_11 emissions_11" vType="Car" speedFactor="1.03" vaporized="">
        <emissions CO_abs="2434.45" CO2_abs="396438.07" HC_abs="16.28" PMx_abs="44.91" NOx_abs="139.48" fuel_abs="128520.08" electricity_abs="0.00"/>
    </tripinfo>
    <tripinfo id="flow_z3.14" depart="24.00" departLane="-E28_1" departPos="5.10" departSpeed="5.36" departDelay="0.68" arrival="188.00" arrivalLane="-E29_0" arrivalPos="266.06" arrivalSpeed="12.65" duration="164.00" routeLength="1186.43" waitingTime="53.00" waitingCount="1" stopTime="0.00" timeLoss="69.88" rerouteNo="0" devices="tripinfo_flow_z3.14 emissions_flow_z3.14" vType="Car" speedFactor="0.93" vaporized="">
        <emissions CO_abs="1431.99" CO2_abs="344681.35" HC_abs="9.54" PMx_abs="24.88" NOx_abs="122.78" fuel_abs="111741.65" electricity_abs="0.00"/>
    </tripinfo>
    <tripinfo id="flow_z3.15" depart="26.00" departLane="-E28_1" departPos="5.10" departSpeed="6.40" departDelay="1.01" arrival="190.00" arrivalLane="-E29_1" arrivalPos="266.06" arrivalSpeed="14.81" duration="164.00" routeLength="1186.43" waitingTime="48.00" waitingCount="2" stopTime="0.00" timeLoss="82.76" rerouteNo="0" devices="tripinfo_flow_z3.15 emissions_flow_z3.15" vType="Car" speedFactor="1.07" vaporized="">
        <emissions CO_abs="1625.81" CO2_abs="363746.15" HC_abs="10.82" PMx_abs="25.93" NOx_abs="128.20" fuel_abs="117922.04" electricity_abs="0.00"/>
    </tripinfo>
    <tripinfo id="flow_z2.1" depart="2.00" departLane="-E18_0" departPos="5.10" departSpeed="13.62" departDelay="0.33" arrival="191.00" arrivalLane="-E15_0" arrivalPos="479.20" arrivalSpeed="14.30" duration="189.00" routeLength="1988.38" waitingTime="26.00" waitingCount="1" stopTime="0.00" timeLoss="52.49" rerouteNo="0" devices="tripinfo_flow_z2.1 emissions_flow_z2.1" vType="Car" speedFactor="1.06" vaporized="">
        <emissions CO_abs="2384.51" CO2_abs="425350.13" HC_abs="15.91" PMx_abs="41.33" NOx_abs="151.29" fuel_abs="137893.24" electricity_abs="0.00"/>
    </tripinfo>
    <tripinfo id="flow_z3.13" depart="23.00" departLane="-E28_1" departPos="5.10" departSpeed="9.21" departDelay="1.34" arrival="191.00" arrivalLane="-E29_0" arrivalPos="266.06" arrivalSpeed="12.15" duration="168.00" routeLength="1186.43" waitingTime="50.00" waitingCount="1" stopTime="0.00" timeLoss="70.76" rerouteNo="0" devices="tripinfo_flow_z3.13 emissions_flow_z3.13" vType="Car" speedFactor="0.90" vaporized="">
        <emissions CO_abs="1097.04" CO2_abs="320067.80" HC_abs="7.32" PMx_abs="24.67" NOx_abs="113.71" fuel_abs="103762.45" electricity_abs="0.00"/>
    </tripinfo>
    <tripinfo id="flow_z3.17" depart="30.00" departLane="-E28_1" departPos="5.10" departSpeed="5.98" departDelay="1.68" arrival="191.00" arrivalLane="-E29_1" arrivalPos="266.06" arrivalSpeed="14.63" duration="161.00" routeLength="1186.43" waitingTime="45.00" waitingCount="1" stopTime="0.00" timeLoss="83.20" rerouteNo="0" devices="tripinfo_flow_z3.17 emissions_flow_z3.17" vType="Car" speedFactor="1.11" vaporized="">
        <emissions CO_abs="1936.39" CO2_abs="380573.55" HC_abs="12.85" PMx_abs="24.83" NOx_abs="133.39" fuel_abs="123376.89" electricity_abs="0.00"/>
    </tripinfo>
    <tripinfo id="flow_z3.10" depart="17.00" departLane="-E28_1" departPos="5.10" departSpeed="7.25" departDelay="0.34" arrival="195.00" arrivalLane="-E29_0" arrivalPos="266.06" arrivalSpeed="13.20" duration="178.00" routeLength="1186.43" waitingTime="55.00" waitingCount="1" stopTime="0.00" timeLoss="92.63" rerouteNo="0" devices="tripinfo_flow_z3.10 emissions_flow_z3.10" vType="Car" speedFactor="1.02" vaporized="">
        <emissions CO_abs="1657.17" CO2_abs="396346.10" HC_abs="11.01" PMx_abs="25.58" NOx_abs="139.24" fuel_abs="128490.49" electricity_abs="0.00"/>
    </tripinfo>
    <tripinfo id="flow_z2.0" depart="0.00" departLane="-E18_0" departPos="5.10" departSpeed="12.79" departDelay="0.00" arrival="196.00" arrivalLane="-E15_0" arrivalPos="479.20" arrivalSpeed="12.57" duration="196.00" routeLength="1988.38" waitingTime="21.00" waitingCount="1" stopTime="0.00" timeLoss="38.00" rerouteNo="0" devices="tripinfo_flow_z2.0 emissions_flow_z2.0" vType="Car" speedFactor="0.92" vaporized="">
        <emissions CO_abs="1970.87" CO2_abs="411967.41" HC_abs="13.18" PMx_abs="42.31" NOx_abs="145.69" fuel_abs="133555.03" electricity_abs="0.00"/>
    </tripinfo>
    <tripinfo id="flow_z2.2" depart="4.00" departLane="-E18_0" departPos="5.10" departSpeed="13.97" departDelay="0.67" arrival="196.00" arrivalLane="-E15_1" arrivalPos="479.20" arrivalSpeed="13.35" duration="192.00" routeLength="1988.38" waitingTime="21.00" waitingCount="1" stopTime="0.00" timeLoss="47.38" rerouteNo="0" devices="tripinfo_flow_z2.2 emissions_flow_z2.2" vType="Car" speedFactor="1.01" vaporized="">
        <emissions CO_abs="2452.01" CO2_abs="446385.92" HC_abs="16.36" PMx_abs="42.02" NOx_abs="156.78" fuel_abs="144712.54" electricity_abs="0.00"/>
    </tripinfo>
    <tripinfo id="flow_z3.11" depart="19.00" departLane="-E28_1" departPos="5.10" departSpeed="7.56" departDelay="0.67" arrival="196.00" arrivalLane="-E29_1" arrivalPos="266.06" arrivalSpeed="14.59" duration="177.00" routeLength="1186.43" waitingTime="56.00" waitingCount="2" stopTime="0.00" timeLoss="98.21" rerouteNo="0" devices="tripinfo_flow_z3.11 emissions_flow_z3.11" vType="Car" speedFactor="1.10" vaporized="">
        <emissions CO_abs="1792.09" CO2_abs="393718.82" HC_abs="11.89" PMx_abs="24.41" NOx_abs="138.18" fuel_abs="127638.65" electricity_abs="0.00"/>
    </tripinfo>
    <tripinfo id="18" depart="36.00" departLane="E32_0" departPos="5.10" departSpeed="0.00" departDelay="0.00" arrival="197.00" arrivalLane="E17_0" arrivalPos="465.43" arrivalSpeed="12.46" duration="161.00" routeLength="1839.24" waitingTime="0.00" waitingCount="0" stopTime="0.00" timeLoss="18.21" rerouteNo="0" devices="tripinfo_18 emissions_18" vType="Car" speedFactor="0.95" vaporized="">
        <emissions CO_abs="2099.56" CO2_abs="375668.35" HC_abs="13.99" PMx_abs="37.39" NOx_abs="129.24" fuel_abs="121786.66" electricity_abs="0.00"/>
    </tripinfo>
    <tripinfo id="54" depart="108.00" departLane="-E6_0" departPos="5.10" departSpeed="0.00" departDelay="0.00" arrival="197.00" arrivalLane="E6_1" arrivalPos="466.06" arrivalSpeed="6.58" duration="89.00" routeLength="1043.03" waitingTime="1.00" waitingCount="1" stopTime="0.00" timeLoss="18.60" rerouteNo="0" devices="tripinfo_54 emissions_54" vType="Car" speedFactor="1.10" vaporized="">
        <emissions CO_abs="1423.40" CO2_abs="237387.17" HC_abs="9.51" PMx_abs="23.40" NOx_abs="81.11" fuel_abs="76957.51" electricity_abs="0.00"/>
    </tripinfo>
    <tripinfo id="flow_z2.5" depart="9.00" departLane="-E18_0" departPos="5.10" departSpeed="14.16" departDelay="0.67" arrival="198.00" arrivalLane="-E15_0" arrivalPos="479.20" arrivalSpeed="13.71" duration="189.00" routeLength="1988.38" waitingTime="20.00" waitingCount="1" stopTime="0.00" timeLoss="46.58" rerouteNo="0" devices="tripinfo_flow_z2.5 emissions_flow_z2.5" vType="Car" speedFactor="1.02" vaporized="">
        <emissions CO_abs="2308.50" CO2_abs="432741.21" HC_abs="15.43" PMx_abs="42.99" NOx_abs="151.84" fuel_abs="140289.24" electricity_abs="0.00"/>
    </tripinfo>
    <tripinfo id="3" depart="6.00" departLane="E37_0" departPos="5.10" departSpeed="0.00" departDelay="0.00" arrival="201.00" arrivalLane="-E14_1" arrivalPos="279.20" arrivalSpeed="14.15" duration="195.00" routeLength="1837.99" waitingTime="47.00" waitingCount="1" stopTime="0.00" timeLoss="67.83" rerouteNo="0" devices="tripinfo_3 emissions_3" vType="Car" speedFactor="1.06" vaporized="">
        <emissions CO_abs="2465.31" CO2_abs="467318.24" HC_abs="16.48" PMx_abs="41.94" NOx_abs="166.49" fuel_abs="151498.82" electricity_abs="0.00"/>
    </tripinfo>
    <tripinfo id="flow_z2.3" depart="5.00" departLane="-E18_0" departPos="5.10" departSpeed="11.06" departDelay="0.00" arrival="201.00" arrivalLane="-E15_1" arrivalPos="479.20" arrivalSpeed="10.86" duration="196.00" routeLength="1984.04" waitingTime="17.00" waitingCount="3" stopTime="0.00" timeLoss="57.56" rerouteNo="0" devices="tripinfo_flow_z2.3 emissions_flow_z2.3" vType="Car" speedFactor="1.05" vaporized="">
        <emissions CO_abs="2546.31" CO2_abs="460111.63" HC_abs="16.98" PMx_abs="42.18" NOx_abs="160.32" fuel_abs="149162.09" electricity_abs="0.00"/>
    </tripinfo>
    <tripinfo id="flow_z3.12" depart="21.00" departLane="-E28_1" departPos="5.10" departSpeed="8.33" departDelay="1.01" arrival="201.00" arrivalLane="-E29_0" arrivalPos="266.06" arrivalSpeed="12.47" duration="180.00" routeLength="1186.43" waitingTime="55.00" waitingCount="1" stopTime="0.00" timeLoss="87.63" rerouteNo="0" devices="tripinfo_flow_z3.12 emissions_flow_z3.12" vType="Car" speedFactor="0.94" vaporized="">
        <emissions CO_abs="1328.54" CO2_abs="355812.22" HC_abs="8.84" PMx_abs="23.46" NOx_abs="124.21" fuel_abs="115350.05" electricity_abs="0.00"/>
    </tripinfo>
    <tripinfo id="flow_z2.4" depart="7.00" departLane="-E18_0" departPos="5.10" departSpeed="12.19" departDelay="0.34" arrival="203.00" arrivalLane="-E15_1" arrivalPos="479.20" arrivalSpeed="12.02" duration="196.00" routeLength="1984.04" waitingTime="12.00" waitingCount="3" stopTime="0.00" timeLoss="58.87" rerouteNo="0" devices="tripinfo_flow_z2.4 emissions_flow_z2.4" vType="Car" speedFactor="1.05" vaporized="">
        <emissions CO_abs="2747.00" CO2_abs="469513.55" HC_abs="18.29" PMx_abs="40.41" NOx_abs="163.40" fuel_abs="152209.81" electricity_abs="0.00"/>
    </tripinfo>
    <tripinfo id="flow_z2.6" depart="10.00" departLane="-E18_0" departPos="5.10" departSpeed="11.31" departDelay="0.00" arrival="204.00" arrivalLane="-E15_0" arrivalPos="479.20" arrivalSpeed="11.67" duration="194.00" routeLength="1988.38" waitingTime="11.00" waitingCount="2" stopTime="0.00" timeLoss="36.43" rerouteNo="0" devices="tripinfo_flow_z2.6 emissions_flow_z2.6" vType="Car" speedFactor="0.92" vaporized="">
        <emissions CO_abs="1896.18" CO2_abs="413298.30" HC_abs="12.68" PMx_abs="42.80" NOx_abs="143.50" fuel_abs="133986.25" electricity_abs="0.00"/>
    </tripinfo>
    <tripinfo id="flow_z2.9" depart="15.00" departLane="-E18_0" departPos="5.10" departSpeed="8.06" departDelay="0.01" arrival="205.00" arrivalLane="-E15_1" arrivalPos="479.20" arrivalSpeed="14.13" duration="190.00" routeLength="1984.04" waitingTime="5.00" waitingCount="1" stopTime="0.00" timeLoss="55.10" rerouteNo="0" devices="tripinfo_flow_z2.9 emissions_flow_z2.9" vType="Car" speedFactor="1.08" vaporized="">
        <emissions CO_abs="2854.95" CO2_abs="474993.36" HC_abs="18.97" PMx_abs="40.00" NOx_abs="163.19" fuel_abs="153986.04" electricity_abs="0.00"/>
    </tripinfo>
    <tripinfo id="flow_z2.10" depart="17.00" departLane="-E18_0" departPos="5.10" departSpeed="9.76" departDelay="0.34" arrival="206.00" arrivalLane="-E15_0" arrivalPos="479.20" arrivalSpeed="12.73" duration="189.00" routeLength="1988.38" waitingTime="7.00" waitingCount="1" stopTime="0.00" timeLoss="39.00" rerouteNo="0" devices="tripinfo_flow_z2.10 emissions_flow_z2.10" vType="Car" speedFactor="0.97" vaporized="">
        <emissions CO_abs="2428.16" CO2_abs="445137.55" HC_abs="16.18" PMx_abs="42.18" NOx_abs="153.74" fuel_abs="144307.65" electricity_abs="0.00"/>
    </tripinfo>
    <tripinfo id="flow_z2.15" depart="25.00" departLane="-E18_0" departPos="5.10" departSpeed="9.45" departDelay="0.01" arrival="206.00" arrivalLane="-E15_1" arrivalPos="479.20" arrivalSpeed="14.11" duration="181.00" routeLength="1988.38" waitingTime="9.00" waitingCount="3" stopTime="0.00" timeLoss="40.61" rerouteNo="0" devices="tripinfo_flow_z2.15 emissions_flow_z2.15" vType="Car" speedFactor="1.03" vaporized="">
        <emissions CO_abs="2310.42" CO2_abs="425358.72" HC_abs="15.46" PMx_abs="44.20" NOx_abs="148.45" fuel_abs="137895.77" electricity_abs="0.00"/>
    </tripinfo>
    <tripinfo id="flow_z3.26" depart="49.00" departLane="-E28_1" departPos="5.10" departSpeed="5.54" departDelay="5.68" arrival="206.00" arrivalLane="-E29_0" arrivalPos="266.06" arrivalSpeed="11.65" duration="157.00" routeLength="1186.43" waitingTime="36.00" waitingCount="1" stopTime="0.00" timeLoss="57.41" rerouteNo="0" devices="tripinfo_flow_z3.26 emissions_flow_z3.26" vType="Car" speedFactor="0.88" vaporized="">
        <emissions CO_abs="1101.86" CO2_abs="304854.88" HC_abs="7.34" PMx_abs="24.49" NOx_abs="107.66" fuel_abs="98830.53" electricity_abs="0.00"/>
    </tripinfo>
    <tripinfo id="flow_z2.7" depart="12.00" departLane="-E18_0" departPos="5.10" departSpeed="9.59" departDelay="0.34" arrival="208.00" arrivalLane="-E15_0" arrivalPos="479.20" arrivalSpeed="12.54" duration="196.00" routeLength="1984.04" waitingTime="6.00" waitingCount="1" stopTime="0.00" timeLoss="40.17" rerouteNo="0" devices="tripinfo_flow_z2.7 emissions_flow_z2.7" vType="Car" speedFactor="0.93" vaporized="">
        <emissions CO_abs="1937.42" CO2_abs="410636.99" HC_abs="12.95" PMx_abs="41.57" NOx_abs="141.89" fuel_abs="133123.31" electricity_abs="0.00"/>
    </tripinfo>
    <tripinfo id="flow_z3.25" depart="47.00" departLane="-E28_1" departPos="5.10" departSpeed="6.10" departDelay="5.35" arrival="208.00" arrivalLane="-E29_0" arrivalPos="266.06" arrivalSpeed="11.16" duration="161.00" routeLength="1186.43" waitingTime="35.00" waitingCount="1" stopTime="0.00" timeLoss="60.91" rerouteNo="0" devices="tripinfo_flow_z3.25 emissions_flow_z3.25" vType="Car" speedFactor="0.87" vaporized="">
        <emissions CO_abs="1146.00" CO2_abs="312407.40" HC_abs="7.63" PMx_abs="23.66" NOx_abs="108.71" fuel_abs="101278.77" electricity_abs="0.00"/>
    </tripinfo>
    <tripinfo id="49" depart="98.00" departLane="E7_0" departPos="5.10" departSpeed="0.00" departDelay="0.00" arrival="209.00" arrivalLane="E34_0" arrivalPos="266.06" arrivalSpeed="10.40" duration="111.00" routeLength="1101.24" waitingTime="0.00" waitingCount="0" stopTime="0.00" timeLoss="10.70" rerouteNo="0" devices="tripinfo_49 emissions_49" vType="Car" speedFactor="0.81" vaporized="">
        <emissions CO_abs="890.12" CO2_abs="225264.04" HC_abs="5.94" PMx_abs="22.91" NOx_abs="76.84" fuel_abs="73027.83" electricity_abs="0.00"/>
    </tripinfo>
    <tripinfo id="flow_z2.8" depart="14.00" departLane="-E18_0" departPos="5.10" departSpeed="11.12" departDelay="0.67" arrival="210.00" arrivalLane="-E15_0" arrivalPos="479.20" arrivalSpeed="14.02" duration="196.00" routeLength="1984.04" waitingTime="4.00" waitingCount="1" stopTime="0.00" timeLoss="52.42" rerouteNo="0" devices="tripinfo_flow_z2.8 emissions_flow_z2.8" vType="Car" speedFactor="1.01" vaporized="">
        <emissions CO_abs="2307.50" CO2_abs="437633.62" HC_abs="15.40" PMx_abs="42.34" NOx_abs="150.65" fuel_abs="141874.90" electricity_abs="0.00"/>
    </tripinfo>