<?xml version="1.0" encoding="UTF-8"?>

<!-- generated on 2026-05-30T17:30:19.071753+00:00 by Eclipse SUMO sumo 1.26.0
<sumoConfiguration xmlns:xsi="http://www.w3.org/2001/XMLSchema-instance" xsi:noNamespaceSchemaLocation="http://sumo.dlr.de/xsd/sumoConfiguration.xsd">

    <input>
        <net-file value="manhattan.net.xml"/>
        <route-files value="routes.rou.xml,background.rou.xml"/>
        <additional-files value="mosaic_types.add.xml"/>
    </input>

    <output>
        <tripinfo-output value="/home/netsim/opt/tpnpr/tripinfo.xml"/>
    </output>

    <time>
        <begin value="0"/>
        <end value="3600"/>
        <step-length value="1.00"/>
    </time>

    <processing>
        <ignore-route-errors value="true"/>
        <time-to-teleport value="0"/>
    </processing>

    <report>
        <verbose value="true"/>
        <no-step-log value="true"/>
    </report>

    <emissions>
        <device.emissions.probability value="1.0"/>
    </emissions>

    <traci_server>
        <remote-port value="43055"/>
    </traci_server>

    <random_number>
        <seed value="100000"/>
    </random_number>

</sumoConfiguration>
-->

<tripinfos xmlns:xsi="http://www.w3.org/2001/XMLSchema-instance" xsi:noNamespaceSchemaLocation="http://sumo.dlr.de/xsd/tripinfo_file.xsd">
    <tripinfo id="13" depart="26.00" departLane="-E15_0" departPos="5.10" departSpeed="0.00" departDelay="0.00" arrival="64.00" arrivalLane="-E15_0" arrivalPos="479.20" arrivalSpeed="14.54" duration="38.00" routeLength="474.10" waitingTime="0.00" waitingCount="0" stopTime="0.00" timeLoss="5.17" rerouteNo="0" devices="tripinfo_13 emissions_13" vType="Car" speedFactor="1.06" vaporized="">
        <emissions CO_abs="633.56" CO2_abs="106877.59" HC_abs="4.24" PMx_abs="11.51" NOx_abs="36.78" fuel_abs="34648.22" electricity_abs="0.00"/>
    </tripinfo>
    <tripinfo id="22" depart="44.00" departLane="-E14_0" departPos="5.10" departSpeed="0.00" departDelay="0.00" arrival="88.00" arrivalLane="-E25_0" arrivalPos="279.20" arrivalSpeed="14.42" duration="44.00" routeLength="574.10" waitingTime="0.00" waitingCount="0" stopTime="0.00" timeLoss="5.40" rerouteNo="0" devices="tripinfo_22 emissions_22" vType="Car" speedFactor="1.08" vaporized="">
        <emissions CO_abs="683.80" CO2_abs="117293.49" HC_abs="4.59" PMx_abs="13.83" NOx_abs="40.64" fuel_abs="38024.98" electricity_abs="0.00"/>
    </tripinfo>
    <tripinfo id="flow_z3.0" depart="0.00" departLane="-E28_1" departPos="5.10" departSpeed="12.68" departDelay="0.00" arrival="103.00" arrivalLane="-E29_0" arrivalPos="266.06" arrivalSpeed="12.37" duration="103.00" routeLength="1186.43" waitingTime="0.00" waitingCount="0" stopTime="0.00" timeLoss="7.69" rerouteNo="0" devices="tripinfo_flow_z3.0 emissions_flow_z3.0" vType="Car" speedFactor="0.91" vaporized="">
        <emissions CO_abs="954.06" CO2_abs="197357.21" HC_abs="6.40" PMx_abs="23.97" NOx_abs="69.70" fuel_abs="63980.95" electricity_abs="0.00"/>
    </tripinfo>
    <tripinfo id="flow_z3.2" depart="2.00" departLane="-E28_1" departPos="5.10" departSpeed="5.68" departDelay="0.33" arrival="104.00" arrivalLane="-E29_1" arrivalPos="266.06" arrivalSpeed="12.68" duration="102.00" routeLength="1186.43" waitingTime="0.00" waitingCount="0" stopTime="0.00" timeLoss="13.72" rerouteNo="0" devices="tripinfo_flow_z3.2 emissions_flow_z3.2" vType="Car" speedFactor="0.99" vaporized="">
        <emissions CO_abs="1378.36" CO2_abs="233520.62" HC_abs="9.18" PMx_abs="24.12" NOx_abs="81.41" fuel_abs="75704.34" electricity_abs="0.00"/>
    </tripinfo>
    <tripinfo id="flow_z3.1" depart="1.00" departLane="-E28_1" departPos="5.10" departSpeed="10.10" departDelay="0.17" arrival="109.00" arrivalLane="-E29_0" arrivalPos="266.06" arrivalSpeed="12.11" duration="108.00" routeLength="1186.43" waitingTime="0.00" waitingCount="0" stopTime="0.00" timeLoss="11.06" rerouteNo="0" devices="tripinfo_flow_z3.1 emissions_flow_z3.1" vType="Car" speedFactor="0.90" vaporized="">
        <emissions CO_abs="1198.84" CO2_abs="231430.18" HC_abs="8.00" PMx_abs="24.71" NOx_abs="80.69" fuel_abs="75026.81" electricity_abs="0.00"/>
    </tripinfo>
    <tripinfo id="flow_z3.3" depart="4.00" departLane="-E28_1" departPos="5.10" departSpeed="5.55" departDelay="1.50" arrival="109.00" arrivalLane="-E29_1" arrivalPos="266.06" arrivalSpeed="13.69" duration="105.00" routeLength="1186.43" waitingTime="0.00" waitingCount="0" stopTime="0.00" timeLoss="17.30" rerouteNo="0" devices="tripinfo_flow_z3.3 emissions_flow_z3.3" vType="Car" speedFactor="0.99" vaporized="">
        <emissions CO_abs="1460.81" CO2_abs="245341.78" HC_abs="9.72" PMx_abs="23.83" NOx_abs="84.91" fuel_abs="79536.51" electricity_abs="0.00"/>
    </tripinfo>
    <tripinfo id="flow_z3.4" depart="6.00" departLane="-E28_1" departPos="5.10" departSpeed="4.72" departDelay="2.67" arrival="111.00" arrivalLane="-E29_0" arrivalPos="266.06" arrivalSpeed="12.97" duration="105.00" routeLength="1186.43" waitingTime="0.00" waitingCount="0" stopTime="0.00" timeLoss="18.59" rerouteNo="0" devices="tripinfo_flow_z3.4 emissions_flow_z3.4" vType="Car" speedFactor="1.01" vaporized="">
        <emissions CO_abs="1495.69" CO2_abs="250036.59" HC_abs="9.95" PMx_abs="24.15" NOx_abs="86.57" fuel_abs="81058.49" electricity_abs="0.00"/>
    </tripinfo>
    <tripinfo id="flow_z3.6" depart="10.00" departLane="-E28_1" departPos="5.10" departSpeed="2.18" departDelay="5.00" arrival="115.00" arrivalLane="-E29_1" arrivalPos="266.06" arrivalSpeed="15.02" duration="105.00" routeLength="1186.43" waitingTime="0.00" waitingCount="0" stopTime="0.00" timeLoss="25.41" rerouteNo="0" devices="tripinfo_flow_z3.6 emissions_flow_z3.6" vType="Car" speedFactor="1.10" vaporized="">
        <emissions CO_abs="1728.85" CO2_abs="280681.07" HC_abs="11.51" PMx_abs="26.25" NOx_abs="96.37" fuel_abs="90992.86" electricity_abs="0.00"/>
    </tripinfo>
    <tripinfo id="flow_z3.5" depart="8.00" departLane="-E28_1" departPos="5.10" departSpeed="3.73" departDelay="3.84" arrival="116.00" arrivalLane="-E29_0" arrivalPos="266.06" arrivalSpeed="12.72" duration="108.00" routeLength="1186.43" waitingTime="0.00" waitingCount="0" stopTime="0.00" timeLoss="12.67" rerouteNo="0" devices="tripinfo_flow_z3.5 emissions_flow_z3.5" vType="Car" speedFactor="0.92" vaporized="">
        <emissions CO_abs="1208.83" CO2_abs="229720.41" HC_abs="8.07" PMx_abs="23.86" NOx_abs="79.11" fuel_abs="74472.40" electricity_abs="0.00"/>
    </tripinfo>
    <tripinfo id="21" depart="42.00" departLane="-E25_0" departPos="5.10" departSpeed="0.00" departDelay="0.00" arrival="122.00" arrivalLane="-E3_0" arrivalPos="483.20" arrivalSpeed="15.02" duration="80.00" routeLength="1079.36" waitingTime="0.00" waitingCount="0" stopTime="0.00" timeLoss="7.49" rerouteNo="0" devices="tripinfo_21 emissions_21" vType="Car" speedFactor="1.10" vaporized="">
        <emissions CO_abs="1393.73" CO2_abs="207214.23" HC_abs="9.33" PMx_abs="24.12" NOx_abs="73.37" fuel_abs="67176.07" electricity_abs="0.00"/>
    </tripinfo>
    <tripinfo id="30" depart="60.00" departLane="E9_0" departPos="5.10" departSpeed="0.00" departDelay="0.00" arrival="135.00" arrivalLane="E19_0" arrivalPos="283.20" arrivalSpeed="14.85" duration="75.00" routeLength="878.10" waitingTime="4.00" waitingCount="1" stopTime="0.00" timeLoss="16.02" rerouteNo="0" devices="tripinfo_30 emissions_30" vType="Car" speedFactor="1.08" vaporized="">
        <emissions CO_abs="1219.87" CO2_abs="205839.50" HC_abs="8.17" PMx_abs="21.10" NOx_abs="71.13" fuel_abs="66730.31" electricity_abs="0.00"/>
    </tripinfo>
    <tripinfo id="4" depart="8.00" departLane="-E39_0" departPos="5.10" departSpeed="0.00" departDelay="0.00" arrival="142.00" arrivalLane="-E10_0" arrivalPos="479.20" arrivalSpeed="11.81" duration="134.00" routeLength="1552.66" waitingTime="0.00" waitingCount="0" stopTime="0.00" timeLoss="12.27" rerouteNo="0" devices="tripinfo_4 emissions_4" vType="Car" speedFactor="0.93" vaporized="">
        <emissions CO_abs="1484.48" CO2_abs="288488.87" HC_abs="9.93" PMx_abs="32.03" NOx_abs="100.14" fuel_abs="93524.47" electricity_abs="0.00"/>
    </tripinfo>
    <tripinfo id="12" depart="24.00" departLane="E6_0" departPos="5.10" departSpeed="0.00" departDelay="0.00" arrival="147.00" arrivalLane="-E32_0" arrivalPos="266.06" arrivalSpeed="11.01" duration="123.00" routeLength="1239.52" waitingTime="0.00" waitingCount="0" stopTime="0.00" timeLoss="12.15" rerouteNo="0" devices="tripinfo_12 emissions_12" vType="Car" speedFactor="0.81" vaporized="">
        <emissions CO_abs="936.88" CO2_abs="239434.38" HC_abs="6.26" PMx_abs="25.59" NOx_abs="82.31" fuel_abs="77621.77" electricity_abs="0.00"/>
    </tripinfo>
    <tripinfo id="1" depart="2.00" departLane="-E29_0" departPos="5.10" departSpeed="0.00" departDelay="0.00" arrival="153.00" arrivalLane="-E24_0" arrivalPos="283.20" arrivalSpeed="13.72" duration="151.00" routeLength="1942.97" waitingTime="0.00" waitingCount="0" stopTime="0.00" timeLoss="15.03" rerouteNo="0" devices="tripinfo_1 emissions_1" vType="Car" speedFactor="1.04" vaporized="">
        <emissions CO_abs="2220.53" CO2_abs="360580.78" HC_abs="14.88" PMx_abs="41.70" NOx_abs="126.69" fuel_abs="116895.59" electricity_abs="0.00"/>
    </tripinfo>
    <tripinfo id="23" depart="46.00" departLane="-E16_0" departPos="5.10" departSpeed="0.00" departDelay="0.00" arrival="160.00" arrivalLane="-E29_0" arrivalPos="266.06" arrivalSpeed="13.69" duration="114.00" routeLength="1384.98" waitingTime="1.00" waitingCount="1" stopTime="0.00" timeLoss="19.39" rerouteNo="0" devices="tripinfo_23 emissions_23" vType="Car" speedFactor="1.07" vaporized="">
        <emissions CO_abs="1840.46" CO2_abs="298049.94" HC_abs="12.31" PMx_abs="30.87" NOx_abs="103.42" fuel_abs="96623.68" electricity_abs="0.00"/>
    </tripinfo>
    <tripinfo id="48" depart="96.00" departLane="E9_0" departPos="5.10" departSpeed="0.00" departDelay="0.00" arrival="160.00" arrivalLane="E10_0" arrivalPos="479.20" arrivalSpeed="13.72" duration="64.00" routeLength="772.65" waitingTime="0.00" waitingCount="0" stopTime="0.00" timeLoss="7.52" rerouteNo="0" devices="tripinfo_48 emissions_48" vType="Car" speedFactor="1.00" vaporized="">
        <emissions CO_abs="1029.78" CO2_abs="173383.65" HC_abs="6.87" PMx_abs="17.31" NOx_abs="59.41" fuel_abs="56208.55" electricity_abs="0.00"/>
    </tripinfo>
    <tripinfo id="flow_z1.2" depart="2.00" departLane="-E1_0" departPos="5.10" departSpeed="7.75" departDelay="0.33" arrival="164.00" arrivalLane="E19_0" arrivalPos="283.20" arrivalSpeed="14.98" duration="162.00" routeLength="2181.19" waitingTime="0.00" waitingCount="0" stopTime="0.00" timeLoss="23.22" rerouteNo="0" devices="tripinfo_flow_z1.2 emissions_flow_z1.2" vType="Car" speedFactor="1.14" vaporized="">
        <emissions CO_abs="2731.10" CO2_abs="394178.31" HC_abs="18.28" PMx_abs="46.87" NOx_abs="141.70" fuel_abs="127787.55" electricity_abs="0.00"/>
    </tripinfo>
    <tripinfo id="flow_z1.0" depart="0.00" departLane="-E1_0" departPos="5.10" departSpeed="13.81" departDelay="0.00" arrival="168.00" arrivalLane="E19_0" arrivalPos="283.20" arrivalSpeed="12.96" duration="168.00" routeLength="2181.19" waitingTime="0.00" waitingCount="0" stopTime="0.00" timeLoss="9.18" rerouteNo="0" devices="tripinfo_flow_z1.0 emissions_flow_z1.0" vType="Car" speedFactor="0.99" vaporized="">
        <emissions CO_abs="1938.04" CO2_abs="335174.26" HC_abs="13.03" PMx_abs="44.73" NOx_abs="120.75" fuel_abs="108659.66" electricity_abs="0.00"/>
    </tripinfo>
    <tripinfo id="flow_z3.8" depart="15.00" departLane="-E28_1" departPos="5.10" departSpeed="0.86" departDelay="8.34" arrival="172.00" arrivalLane="-E29_0" arrivalPos="266.06" arrivalSpeed="13.97" duration="157.00" routeLength="1186.43" waitingTime="56.00" waitingCount="2" stopTime="0.00" timeLoss="76.13" rerouteNo="0" devices="tripinfo_flow_z3.8 emissions_flow_z3.8" vType="Car" speedFactor="1.07" vaporized="">
        <emissions CO_abs="1660.22" CO2_abs="357261.45" HC_abs="11.09" PMx_abs="27.58" NOx_abs="128.13" fuel_abs="115819.91" electricity_abs="0.00"/>
    </tripinfo>
    <tripinfo id="flow_z1.3" depart="4.00" departLane="-E1_0" departPos="5.10" departSpeed="8.02" departDelay="1.50" arrival="175.00" arrivalLane="E19_0" arrivalPos="283.20" arrivalSpeed="13.42" duration="171.00" routeLength="2181.19" waitingTime="0.00" waitingCount="0" stopTime="0.00" timeLoss="16.38" rerouteNo="0" devices="tripinfo_flow_z1.3 emissions_flow_z1.3" vType="Car" speedFactor="1.03" vaporized="">
        <emissions CO_abs="2464.29" CO2_abs="381699.09" HC_abs="16.47" PMx_abs="43.58" NOx_abs="136.16" fuel_abs="123741.99" electricity_abs="0.00"/>
    </tripinfo>
    <tripinfo id="flow_z1.1" depart="1.00" departLane="-E1_0" departPos="5.10" departSpeed="10.93" departDelay="0.17" arrival="176.00" arrivalLane="E19_0" arrivalPos="283.20" arrivalSpeed="12.38" duration="175.00" routeLength="2181.19" waitingTime="0.00" waitingCount="0" stopTime="0.00" timeLoss="9.95" rerouteNo="0" devices="tripinfo_flow_z1.1 emissions_flow_z1.1" vType="Car" speedFactor="0.96" vaporized="">
        <emissions CO_abs="1946.62" CO2_abs="345911.19" HC_abs="13.05" PMx_abs="43.38" NOx_abs="123.72" fuel_abs="112140.37" electricity_abs="0.00"/>
    </tripinfo>
    <tripinfo id="16" depart="32.00" departLane="E10_0" departPos="5.10" departSpeed="0.00" departDelay="0.00" arrival="177.00" arrivalLane="E7_0" arrivalPos="466.06" arrivalSpeed="14.32" duration="145.00" routeLength="1801.77" waitingTime="2.00" waitingCount="1" stopTime="0.00" timeLoss="19.09" rerouteNo="0" devices="tripinfo_16 emissions_16" vType="Car" speedFactor="1.05" vaporized="">
        <emissions CO_abs="2282.08" CO2_abs="371867.66" HC_abs="15.26" PMx_abs="40.22" NOx_abs="129.84" fuel_abs="120554.51" electricity_abs="0.00"/>
    </tripinfo>
    <tripinfo id="36" depart="72.00" departLane="E36_0" departPos="5.10" departSpeed="0.00" departDelay="0.00" arrival="178.00" arrivalLane="-E31_0" arrivalPos="279.20" arrivalSpeed="16.70" duration="106.00" routeLength="1568.07" waitingTime="0.00" waitingCount="0" stopTime="0.00" timeLoss="14.12" rerouteNo="0" devices="tripinfo_36 emissions_36" vType="Car" speedFactor="1.27" vaporized="">
        <emissions CO_abs="2999.47" CO2_abs="365300.12" HC_abs="20.08" PMx_abs="40.80" NOx_abs="131.65" fuel_abs="118425.07" electricity_abs="0.00"/>
    </tripinfo>
    <tripinfo id="49" depart="98.00" departLane="E7_0" departPos="5.10" departSpeed="0.00" departDelay="0.00" arrival="182.00" arrivalLane="E34_0" arrivalPos="266.06" arrivalSpeed="8.33" duration="84.00" routeLength="1101.24" waitingTime="0.00" waitingCount="0" stopTime="0.00" timeLoss="12.37" rerouteNo="0" devices="tripinfo_49 emissions_49" vType="Car" speedFactor="1.13" vaporized="">
        <emissions CO_abs="1426.52" CO2_abs="213309.24" HC_abs="9.55" PMx_abs="23.78" NOx_abs="75.45" fuel_abs="69151.97" electricity_abs="0.00"/>
    </tripinfo>
    <tripinfo id="flow_z3.13" depart="27.00" departLane="-E28_1" departPos="5.10" departSpeed="6.97" departDelay="16.17" arrival="188.00" arrivalLane="-E29_0" arrivalPos="266.06" arrivalSpeed="11.27" duration="161.00" routeLength="1186.43" waitingTime="50.00" waitingCount="1" stopTime="0.00" timeLoss="63.40" rerouteNo="0" devices="tripinfo_flow_z3.13 emissions_flow_z3.13" vType="Car" speedFactor="0.90" vaporized="">
        <emissions CO_abs="1133.34" CO2_abs="308707.71" HC_abs="7.56" PMx_abs="23.49" NOx_abs="110.48" fuel_abs="100079.60" electricity_abs="0.00"/>
    </tripinfo>
    <tripinfo id="flow_z2.1" depart="1.00" departLane="-E18_0" departPos="5.10" departSpeed="9.58" departDelay="0.17" arrival="191.00" arrivalLane="-E15_0" arrivalPos="479.20" arrivalSpeed="14.47" duration="190.00" routeLength="1988.38" waitingTime="37.00" waitingCount="1" stopTime="0.00" timeLoss="53.35" rerouteNo="0" devices="tripinfo_flow_z2.1 emissions_flow_z2.1" vType="Car" speedFactor="1.06" vaporized="">
        <emissions CO_abs="2454.85" CO2_abs="433177.54" HC_abs="16.42" PMx_abs="42.77" NOx_abs="155.98" fuel_abs="140430.85" electricity_abs="0.00"/>
    </tripinfo>
    <tripinfo id="18" depart="36.00" departLane="E32_0" departPos="5.10" departSpeed="0.00" departDelay="0.00" arrival="194.00" arrivalLane="E17_0" arrivalPos="465.43" arrivalSpeed="13.37" duration="158.00" routeLength="1839.24" waitingTime="0.00" waitingCount="0" stopTime="0.00" timeLoss="16.07" rerouteNo="0" devices="tripinfo_18 emissions_18" vType="Car" speedFactor="0.96" vaporized="">
        <emissions CO_abs="2117.82" CO2_abs="380236.35" HC_abs="14.14" PMx_abs="40.42" NOx_abs="131.36" fuel_abs="123267.64" electricity_abs="0.00"/>
    </tripinfo>
    <tripinfo id="flow_z2.2" depart="2.00" departLane="-E18_0" departPos="5.10" departSpeed="5.27" departDelay="0.33" arrival="196.00" arrivalLane="-E15_1" arrivalPos="479.20" arrivalSpeed="12.96" duration="194.00" routeLength="1988.38" waitingTime="3.00" waitingCount="1" stopTime="0.00" timeLoss="50.61" rerouteNo="0" devices="tripinfo_flow_z2.2 emissions_flow_z2.2" vType="Car" speedFactor="1.01" vaporized="">
        <emissions CO_abs="2142.07" CO2_abs="428746.77" HC_abs="14.28" PMx_abs="40.98" NOx_abs="146.94" fuel_abs="138993.96" electricity_abs="0.00"/>
    </tripinfo>
    <tripinfo id="flow_z3.14" depart="29.00" departLane="-E28_1" departPos="5.10" departSpeed="8.13" departDelay="17.34" arrival="199.00" arrivalLane="-E29_1" arrivalPos="266.06" arrivalSpeed="12.43" duration="170.00" routeLength="1186.43" waitingTime="43.00" waitingCount="1" stopTime="0.00" timeLoss="76.22" rerouteNo="0" devices="tripinfo_flow_z3.14 emissions_flow_z3.14" vType="Car" speedFactor="0.93" vaporized="">
        <emissions CO_abs="1195.16" CO2_abs="328000.44" HC_abs="7.95" PMx_abs="23.89" NOx_abs="114.98" fuel_abs="106333.87" electricity_abs="0.00"/>
    </tripinfo>
    <tripinfo id="flow_z2.4" depart="6.00" departLane="-E18_0" departPos="5.10" departSpeed="5.64" departDelay="2.67" arrival="200.00" arrivalLane="-E15_1" arrivalPos="479.20" arrivalSpeed="13.52" duration="194.00" routeLength="1988.38" waitingTime="4.00" waitingCount="2" stopTime="0.00" timeLoss="56.29" rerouteNo="0" devices="tripinfo_flow_z2.4 emissions_flow_z2.4" vType="Car" speedFactor="1.05" vaporized="">
        <emissions CO_abs="2115.82" CO2_abs="411942.12" HC_abs="14.11" PMx_abs="39.11" NOx_abs="141.15" fuel_abs="133546.17" electricity_abs="0.00"/>
    </tripinfo>
    <tripinfo id="flow_z2.6" depart="10.00" departLane="-E18_0" departPos="5.10" departSpeed="6.09" departDelay="5.00" arrival="200.00" arrivalLane="-E15_0" arrivalPos="479.20" arrivalSpeed="13.21" duration="190.00" routeLength="1988.38" waitingTime="1.00" waitingCount="1" stopTime="0.00" timeLoss="41.09" rerouteNo="0" devices="tripinfo_flow_z2.6 emissions_flow_z2.6" vType="Car" speedFactor="0.97" vaporized="">
        <emissions CO_abs="1999.78" CO2_abs="403970.77" HC_abs="13.35" PMx_abs="40.65" NOx_abs="139.19" fuel_abs="130962.06" electricity_abs="0.00"/>
    </tripinfo>
    <tripinfo id="flow_z3.11" depart="23.00" departLane="-E28_1" departPos="5.10" departSpeed="5.86" departDelay="13.84" arrival="201.00" arrivalLane="-E29_1" arrivalPos="266.06" arrivalSpeed="13.73" duration="178.00" routeLength="1186.43" waitingTime="49.00" waitingCount="1" stopTime="0.00" timeLoss="95.19" rerouteNo="0" devices="tripinfo_flow_z3.11 emissions_flow_z3.11" vType="Car" speedFactor="1.06" vaporized="">
        <emissions CO_abs="1462.40" CO2_abs="368298.07" HC_abs="9.72" PMx_abs="24.69" NOx_abs="128.75" fuel_abs="119397.73" electricity_abs="0.00"/>
    </tripinfo>
    <tripinfo id="54" depart="108.00" departLane="-E6_0" departPos="5.10" departSpeed="0.00" departDelay="0.00" arrival="202.00" arrivalLane="E6_1" arrivalPos="466.06" arrivalSpeed="7.22" duration="94.00" routeLength="1043.03" waitingTime="0.00" waitingCount="0" stopTime="0.00" timeLoss="15.47" rerouteNo="0" devices="tripinfo_54 emissions_54" vType="Car" speedFactor="0.98" vaporized="">
        <emissions CO_abs="1277.95" CO2_abs="234112.95" HC_abs="8.51" PMx_abs="22.13" NOx_abs="79.18" fuel_abs="75896.15" electricity_abs="0.00"/>
    </tripinfo>
    <tripinfo id="flow_z3.18" depart="38.00" departLane="-E28_1" departPos="5.10" departSpeed="4.76" departDelay="23.01" arrival="202.00" arrivalLane="-E29_1" arrivalPos="266.06" arrivalSpeed="14.19" duration="164.00" routeLength="1186.43" waitingTime="38.00" waitingCount="2" stopTime="0.00" timeLoss="80.73" rerouteNo="0" devices="tripinfo_flow_z3.18 emissions_flow_z3.18" vType="Car" speedFactor="1.04" vaporized="">
        <emissions CO_abs="1668.09" CO2_abs="360367.04" HC_abs="11.06" PMx_abs="22.92" NOx_abs="124.52" fuel_abs="116826.16" electricity_abs="0.00"/>
    </tripinfo>
    <tripinfo id="3" depart="6.00" departLane="E37_0" departPos="5.10" departSpeed="0.00" departDelay="0.00" arrival="203.00" arrivalLane="-E14_1" arrivalPos="279.20" arrivalSpeed="14.11" duration="197.00" routeLength="1837.99" waitingTime="47.00" waitingCount="1" stopTime="0.00" timeLoss="68.50" rerouteNo="0" devices="tripinfo_3 emissions_3" vType="Car" speedFactor="1.06" vaporized="">
        <emissions CO_abs="2491.86" CO2_abs="469781.48" HC_abs="16.64" PMx_abs="41.35" NOx_abs="167.54" fuel_abs="152297.36" electricity_abs="0.00"/>
    </tripinfo>
    <tripinfo id="flow_z3.9" depart="19.00" departLane="-E28_1" departPos="5.10" departSpeed="5.82" departDelay="11.50" arrival="204.00" arrivalLane="-E29_1" arrivalPos="266.06" arrivalSpeed="16.09" duration="185.00" routeLength="1186.43" waitingTime="55.00" waitingCount="2" stopTime="0.00" timeLoss="112.81" rerouteNo="0" devices="tripinfo_flow_z3.9 emissions_flow_z3.9" vType="Car" speedFactor="1.21" vaporized="">
        <emissions CO_abs="1900.56" CO2_abs="424356.36" HC_abs="12.59" PMx_abs="24.95" NOx_abs="147.38" fuel_abs="137570.83" electricity_abs="0.00"/>
    </tripinfo>
    <tripinfo id="flow_z2.8" depart="14.00" departLane="-E18_0" departPos="5.10" departSpeed="5.60" departDelay="7.34" arrival="206.00" arrivalLane="-E15_1" arrivalPos="479.20" arrivalSpeed="13.99" duration="192.00" routeLength="1984.04" waitingTime="1.00" waitingCount="1" stopTime="0.00" timeLoss="49.34" rerouteNo="0" devices="tripinfo_flow_z2.8 emissions_flow_z2.8" vType="Car" speedFactor="1.01" vaporized="">
        <emissions CO_abs="2364.64" CO2_abs="443418.62" HC_abs="15.76" PMx_abs="42.04" NOx_abs="151.04" fuel_abs="143750.19" electricity_abs="0.00"/>
    </tripinfo>
    <tripinfo id="flow_z2.7" depart="12.00" departLane="-E18_0" departPos="5.10" departSpeed="5.93" departDelay="6.17" arrival="207.00" arrivalLane="-E15_0" arrivalPos="479.20" arrivalSpeed="12.95" duration="195.00" routeLength="1984.04" waitingTime="0.00" waitingCount="0" stopTime="0.00" timeLoss="39.42" rerouteNo="0" devices="tripinfo_flow_z2.7 emissions_flow_z2.7" vType="Car" speedFactor="0.93" vaporized="">
        <emissions CO_abs="2040.66" CO2_abs="409822.22" HC_abs="13.60" PMx_abs="39.34" NOx_abs="139.35" fuel_abs="132858.91" electricity_abs="0.00"/>
    </tripinfo>
    <tripinfo id="flow_z3.7" depart="13.00" departLane="-E28_1" departPos="5.10" departSpeed="3.08" departDelay="7.17" arrival="207.00" arrivalLane="-E29_0" arrivalPos="266.06" arrivalSpeed="8.33" duration="194.00" routeLength="1186.43" waitingTime="61.00" waitingCount="1" stopTime="0.00" timeLoss="96.68" rerouteNo="0" devices="tripinfo_flow_z3.7 emissions_flow_z3.7" vType="Car" speedFactor="0.90" vaporized="">
        <emissions CO_abs="743.64" CO2_abs="352053.48" HC_abs="4.99" PMx_abs="27.94" NOx_abs="128.32" fuel_abs="114132.54" electricity_abs="0.00"/>
    </tripinfo>
    <tripinfo id="flow_z2.9" depart="16.00" departLane="-E18_0" departPos="5.10" departSpeed="3.89" departDelay="8.50" arrival="208.00" arrivalLane="-E15_1" arrivalPos="479.20" arrivalSpeed="14.62" duration="192.00" routeLength="1984.04" waitingTime="2.00" waitingCount="1" stopTime="0.00" timeLoss="57.78" rerouteNo="0" devices="tripinfo_flow_z2.9 emissions_flow_z2.9" vType="Car" speedFactor="1.08" vaporized="">
        <emissions CO_abs="2428.56" CO2_abs="440145.10" HC_abs="16.20" PMx_abs="41.42" NOx_abs="149.33" fuel_abs="142688.82" electricity_abs="0.00"/>
    </tripinfo>
    <tripinfo id="flow_z2.10" depart="18.00" departLane="-E18_0" departPos="5.10" departSpeed="2.16" departDelay="9.67" arrival="212.00" arrivalLane="-E15_0" arrivalPos="479.20" arrivalSpeed="12.53" duration="194.00" routeLength="1988.38" waitingTime="0.00" waitingCount="0" stopTime="0.00" timeLoss="43.70" rerouteNo="0" devices="tripinfo_flow_z2.10 emissions_flow_z2.10" vType="Car" speedFactor="0.97" vaporized="">
        <emissions CO_abs="2104.79" CO2_abs="412016.32" HC_abs="14.01" PMx_abs="37.92" NOx_abs="139.62" fuel_abs="133570.09" electricity_abs="0.00"/>
    </tripinfo>
    <tripinfo id="41" depart="82.00" departLane="E14_0" departPos="5.10" departSpeed="0.00" departDelay="0.00" arrival="216.00" arrivalLane="E37_0" arrivalPos="266.06" arrivalSpeed="13.68" duration="134.00" routeLength="1537.42" waitingTime="4.00" waitingCount="2" stopTime="0.00" timeLoss="23.77" rerouteNo="0" devices="tripinfo_41 emissions_41" vType="Car" speedFactor="1.03" vaporized="">
        <emissions CO_abs="1903.27" CO2_abs="336263.04" HC_abs="12.72" PMx_abs="34.47" NOx_abs="116.24" fuel_abs="109011.99" electricity_abs="0.00"/>
    </tripinfo>
    <tripinfo id="68" depart="136.00" departLane="-E13_0" departPos="5.10" departSpeed="0.00" departDelay="0.00" arrival="216.00" arrivalLane="E27_1" arrivalPos="279.20" arrivalSpeed="14.10" duration="80.00" routeLength="772.65" waitingTime="15.00" waitingCount="1" stopTime="0.00" timeLoss="26.24" rerouteNo="0" devices="tripinfo_68 emissions_68" vType="Car" speedFactor="1.05" vaporized="">
        <emissions CO_abs="967.82" CO2_abs="195710.83" HC_abs="6.48" PMx_abs="18.11" NOx_abs="68.48" fuel_abs="63446.88" electricity_abs="0.00"/>
    </tripinfo>
    <tripinfo id="42" depart="84.00" departLane="-E37_0" departPos="5.10" departSpeed="0.00" departDelay="0.00" arrival="218.00" arrivalLane="-E24_0" arrivalPos="283.20" arrivalSpeed="14.03" duration="134.00" routeLength="1551.74" waitingTime="2.00" waitingCount="2" stopTime="0.00" timeLoss="24.12" rerouteNo="0" devices="tripinfo_42 emissions_42" vType="Car" speedFactor="1.04" vaporized="">
        <emissions CO_abs="2087.26" CO2_abs="344197.61" HC_abs="13.91" PMx_abs="32.68" NOx_abs="118.84" fuel_abs="111583.96" electricity_abs="0.00"/>
    </tripinfo>
    <tripinfo id="flow_z3.10" depart="21.00" departLane="-E28_1" departPos="5.10" departSpeed="6.01" departDelay="12.67" arrival="220.00" arrivalLane="-E29_1" arrivalPos="266.06" arrivalSpeed="8.33" duration="199.00" routeLength="1186.43" waitingTime="54.00" waitingCount="1" stopTime="0.00" timeLoss="114.00" rerouteNo="0" devices="tripinfo_flow_z3.10 emissions_flow_z3.10" vType="Car" speedFactor="1.02" vaporized="">
        <emissions CO_abs="783.16" CO2_abs="372052.41" HC_abs="5.25" PMx_abs="29.69" NOx_abs="134.68" fuel_abs="120615.88" electricity_abs="0.00"/>
    </tripinfo>
    <tripinfo id="flow_z3.12" depart="25.00" departLane="-E28_1" departPos="5.10" departSpeed="5.78" departDelay="15.00" arrival="220.00" arrivalLane="-E29_0" arrivalPos="266.06" arrivalSpeed="7.76" duration="195.00" routeLength="1186.43" waitingTime="50.00" waitingCount="1" stopTime="0.00" timeLoss="102.60" rerouteNo="0" devices="tripinfo_flow_z3.12 emissions_flow_z3.12" vType="Car" speedFactor="0.94" vaporized="">
        <emissions CO_abs="1127.82" CO2_abs="374731.64" HC_abs="7.49" PMx_abs="24.40" NOx_abs="129.31" fuel_abs="121483.54" electricity_abs="0.00"/>
    </tripinfo>
    <tripinfo id="flow_z3.17" depart="35.00" departLane="-E28_1" departPos="5.10" departSpeed="2.58" departDelay="20.84" arrival="222.00" arrivalLane="-E29_1" arrivalPos="266.06" arrivalSpeed="12.12" duration="187.00" routeLength="1186.43" waitingTime="43.00" waitingCount="2" stopTime="0.00" timeLoss="95.78" rerouteNo="0" devices="tripinfo_flow_z3.17 emissions_flow_z3.17" vType="Car" speedFactor="0.96" vaporized="">
        <emissions CO_abs="1392.59" CO2_abs="389397.39" HC_abs="9.23" PMx_abs="23.52" NOx_abs="132.60" fuel_abs="126237.49" electricity_abs="0.00"/>
    </tripinfo>
    <tripinfo id="flow_z3.23" depart="48.00" departLane="-E28_1" departPos="5.10" departSpeed="5.07" departDelay="28.84" arrival="222.00" arrivalLane="-E29_0" arrivalPos="266.06" arrivalSpeed="10.93" duration="174.00" routeLength="1186.43" waitingTime="38.00" waitingCount="2" stopTime="0.00" timeLoss="89.12" rerouteNo="0" devices="tripinfo_flow_z3.23 emissions_flow_z3.23" vType="Car" speedFactor="1.03" vaporized="">
        <emissions CO_abs="1450.90" CO2_abs="360436.16" HC_abs="9.63" PMx_abs="23.19" NOx_abs="123.13" fuel_abs="116848.61" electricity_abs="0.00"/>
    </tripinfo>
    <tripinfo id="flow_z2.0" depart="0.00" departLane="-E18_0" departPos="5.10" departSpeed="12.79" departDelay="0.00" arrival="223.00" arrivalLane="-E15_0" arrivalPos="479.20" arrivalSpeed="8.33" duration="223.00" routeLength="1988.38" waitingTime="0.00" waitingCount="0" stopTime="0.00" timeLoss="65.76" rerouteNo="0" devices="tripinfo_flow_z2.0 emissions_flow_z2.0" vType="Car" speedFactor="0.92" vaporized="">
        <emissions CO_abs="721.20" CO2_abs="390015.75" HC_abs="4.92" PMx_abs="50.28" NOx_abs="143.73" fuel_abs="126440.07" electricity_abs="0.00"/>
    </tripinfo>
    <tripinfo id="flow_z3.15" depart="30.00" departLane="-E28_1" departPos="5.10" departSpeed="4.10" departDelay="17.51" arrival="224.00" arrivalLane="-E29_0" arrivalPos="266.06" arrivalSpeed="11.76" duration="194.00" routeLength="1186.43" waitingTime="46.00" waitingCount="2" stopTime="0.00" timeLoss="112.95" rerouteNo="0" devices="tripinfo_flow_z3.15 emissions_flow_z3.15" vType="Car" speedFactor="1.07" vaporized="">
        <emissions CO_abs="1634.87" CO2_abs="424514.80" HC_abs="10.82" PMx_abs="23.62" NOx_abs="143.35" fuel_abs="137621.93" electricity_abs="0.00"/>
    </tripinfo>