<?xml version="1.0" encoding="UTF-8"?>

<!-- generated on 2026-05-30T17:31:17.616333+00:00 by Eclipse SUMO sumo 1.26.0
<sumoConfiguration xmlns:xsi="http://www.w3.org/2001/XMLSchema-instance" xsi:noNamespaceSchemaLocation="http://sumo.dlr.de/xsd/sumoConfiguration.xsd">

    <input>
        <net-file value="manhattan.net.xml"/>
        <route-files value="routes.rou.xml,background.rou.xml"/>
        <additional-files value="mosaic_types.add.xml"/>
    </input>

    <output>
        <tripinfo-output value="/home/netsim/opt/tpnpr/tripinfo.xml"/>
    </output>

    <time>
        <begin value="0"/>
        <end value="3600"/>
        <step-length value="1.00"/>
    </time>

    <processing>
        <ignore-route-errors value="true"/>
        <time-to-teleport value="0"/>
    </processing>

    <report>
        <verbose value="true"/>
        <no-step-log value="true"/>
    </report>

    <emissions>
        <device.emissions.probability value="1.0"/>
    </emissions>

    <traci_server>
        <remote-port value="35113"/>
    </traci_server>

    <random_number>
        <seed value="100000"/>
    </random_number>

</sumoConfiguration>
-->

<tripinfos xmlns:xsi="http://www.w3.org/2001/XMLSchema-instance" xsi:noNamespaceSchemaLocation="http://sumo.dlr.de/xsd/tripinfo_file.xsd">
    <tripinfo id="13" depart="26.00" departLane="-E15_0" departPos="5.10" departSpeed="0.00" departDelay="0.00" arrival="64.00" arrivalLane="-E15_0" arrivalPos="479.20" arrivalSpeed="14.54" duration="38.00" routeLength="474.10" waitingTime="0.00" waitingCount="0" stopTime="0.00" timeLoss="5.20" rerouteNo="0" devices="tripinfo_13 emissions_13" vType="Car" speedFactor="1.06" vaporized="">
        <emissions CO_abs="624.94" CO2_abs="106259.13" HC_abs="4.18" PMx_abs="11.48" NOx_abs="36.53" fuel_abs="34447.73" electricity_abs="0.00"/>
    </tripinfo>
    <tripinfo id="22" depart="44.00" departLane="-E14_0" departPos="5.10" departSpeed="0.00" departDelay="0.00" arrival="88.00" arrivalLane="-E25_0" arrivalPos="279.20" arrivalSpeed="13.77" duration="44.00" routeLength="574.10" waitingTime="0.00" waitingCount="0" stopTime="0.00" timeLoss="5.40" rerouteNo="0" devices="tripinfo_22 emissions_22" vType="Car" speedFactor="1.08" vaporized="">
        <emissions CO_abs="765.18" CO2_abs="122611.21" HC_abs="5.12" PMx_abs="13.65" NOx_abs="42.57" fuel_abs="39748.86" electricity_abs="0.00"/>
    </tripinfo>
    <tripinfo id="flow_z3.0" depart="0.00" departLane="-E28_1" departPos="5.10" departSpeed="12.68" departDelay="0.00" arrival="104.00" arrivalLane="-E29_0" arrivalPos="266.06" arrivalSpeed="12.37" duration="104.00" routeLength="1186.43" waitingTime="0.00" waitingCount="0" stopTime="0.00" timeLoss="7.67" rerouteNo="0" devices="tripinfo_flow_z3.0 emissions_flow_z3.0" vType="Car" speedFactor="0.91" vaporized="">
        <emissions CO_abs="957.63" CO2_abs="195287.34" HC_abs="6.42" PMx_abs="23.43" NOx_abs="68.82" fuel_abs="63309.89" electricity_abs="0.00"/>
    </tripinfo>
    <tripinfo id="flow_z3.2" depart="2.00" departLane="-E28_1" departPos="5.10" departSpeed="5.68" departDelay="0.33" arrival="104.00" arrivalLane="-E29_1" arrivalPos="266.06" arrivalSpeed="13.25" duration="102.00" routeLength="1186.43" waitingTime="0.00" waitingCount="0" stopTime="0.00" timeLoss="13.40" rerouteNo="0" devices="tripinfo_flow_z3.2 emissions_flow_z3.2" vType="Car" speedFactor="0.99" vaporized="">
        <emissions CO_abs="1388.24" CO2_abs="234452.11" HC_abs="9.25" PMx_abs="24.30" NOx_abs="81.70" fuel_abs="76006.31" electricity_abs="0.00"/>
    </tripinfo>
    <tripinfo id="flow_z3.1" depart="1.00" departLane="-E28_1" departPos="5.10" departSpeed="10.10" departDelay="0.17" arrival="109.00" arrivalLane="-E29_0" arrivalPos="266.06" arrivalSpeed="11.55" duration="108.00" routeLength="1186.43" waitingTime="0.00" waitingCount="0" stopTime="0.00" timeLoss="11.18" rerouteNo="0" devices="tripinfo_flow_z3.1 emissions_flow_z3.1" vType="Car" speedFactor="0.90" vaporized="">
        <emissions CO_abs="1222.72" CO2_abs="230004.26" HC_abs="8.15" PMx_abs="23.91" NOx_abs="79.92" fuel_abs="74564.49" electricity_abs="0.00"/>
    </tripinfo>
    <tripinfo id="flow_z3.3" depart="4.00" departLane="-E28_1" departPos="5.10" departSpeed="5.55" departDelay="1.50" arrival="109.00" arrivalLane="-E29_1" arrivalPos="266.06" arrivalSpeed="13.55" duration="105.00" routeLength="1186.43" waitingTime="0.00" waitingCount="0" stopTime="0.00" timeLoss="17.29" rerouteNo="0" devices="tripinfo_flow_z3.3 emissions_flow_z3.3" vType="Car" speedFactor="0.99" vaporized="">
        <emissions CO_abs="1444.27" CO2_abs="247320.11" HC_abs="9.61" PMx_abs="24.37" NOx_abs="85.54" fuel_abs="80177.89" electricity_abs="0.00"/>
    </tripinfo>
    <tripinfo id="flow_z3.4" depart="6.00" departLane="-E28_1" departPos="5.10" departSpeed="4.72" departDelay="2.67" arrival="112.00" arrivalLane="-E29_0" arrivalPos="266.06" arrivalSpeed="12.83" duration="106.00" routeLength="1186.43" waitingTime="0.00" waitingCount="0" stopTime="0.00" timeLoss="19.03" rerouteNo="0" devices="tripinfo_flow_z3.4 emissions_flow_z3.4" vType="Car" speedFactor="1.01" vaporized="">
        <emissions CO_abs="1469.09" CO2_abs="248210.63" HC_abs="9.78" PMx_abs="24.08" NOx_abs="85.83" fuel_abs="80466.55" electricity_abs="0.00"/>
    </tripinfo>
    <tripinfo id="flow_z3.6" depart="10.00" departLane="-E28_1" departPos="5.10" departSpeed="2.18" departDelay="5.00" arrival="114.00" arrivalLane="-E29_1" arrivalPos="266.06" arrivalSpeed="14.08" duration="104.00" routeLength="1186.43" waitingTime="0.00" waitingCount="0" stopTime="0.00" timeLoss="25.40" rerouteNo="0" devices="tripinfo_flow_z3.6 emissions_flow_z3.6" vType="Car" speedFactor="1.10" vaporized="">
        <emissions CO_abs="1674.66" CO2_abs="273490.91" HC_abs="11.15" PMx_abs="25.36" NOx_abs="93.73" fuel_abs="88661.90" electricity_abs="0.00"/>
    </tripinfo>
    <tripinfo id="flow_z3.5" depart="8.00" departLane="-E28_1" departPos="5.10" departSpeed="3.73" departDelay="3.84" arrival="116.00" arrivalLane="-E29_0" arrivalPos="266.06" arrivalSpeed="12.26" duration="108.00" routeLength="1186.43" waitingTime="0.00" waitingCount="0" stopTime="0.00" timeLoss="12.68" rerouteNo="0" devices="tripinfo_flow_z3.5 emissions_flow_z3.5" vType="Car" speedFactor="0.92" vaporized="">
        <emissions CO_abs="1238.25" CO2_abs="232439.49" HC_abs="8.26" PMx_abs="23.47" NOx_abs="79.82" fuel_abs="75353.85" electricity_abs="0.00"/>
    </tripinfo>
    <tripinfo id="21" depart="42.00" departLane="-E25_0" departPos="5.10" departSpeed="0.00" departDelay="0.00" arrival="122.00" arrivalLane="-E3_0" arrivalPos="483.20" arrivalSpeed="15.02" duration="80.00" routeLength="1079.36" waitingTime="0.00" waitingCount="0" stopTime="0.00" timeLoss="7.48" rerouteNo="0" devices="tripinfo_21 emissions_21" vType="Car" speedFactor="1.10" vaporized="">
        <emissions CO_abs="1366.23" CO2_abs="203407.55" HC_abs="9.14" PMx_abs="23.67" NOx_abs="71.97" fuel_abs="65941.99" electricity_abs="0.00"/>
    </tripinfo>
    <tripinfo id="30" depart="60.00" departLane="E9_0" departPos="5.10" departSpeed="0.00" departDelay="0.00" arrival="136.00" arrivalLane="E19_0" arrivalPos="283.20" arrivalSpeed="13.71" duration="76.00" routeLength="878.10" waitingTime="4.00" waitingCount="1" stopTime="0.00" timeLoss="16.40" rerouteNo="0" devices="tripinfo_30 emissions_30" vType="Car" speedFactor="1.08" vaporized="">
        <emissions CO_abs="1234.72" CO2_abs="206093.52" HC_abs="8.26" PMx_abs="20.64" NOx_abs="71.19" fuel_abs="66812.63" electricity_abs="0.00"/>
    </tripinfo>
    <tripinfo id="4" depart="8.00" departLane="-E39_0" departPos="5.10" departSpeed="0.00" departDelay="0.00" arrival="142.00" arrivalLane="-E10_0" arrivalPos="479.20" arrivalSpeed="11.81" duration="134.00" routeLength="1552.66" waitingTime="0.00" waitingCount="0" stopTime="0.00" timeLoss="12.27" rerouteNo="0" devices="tripinfo_4 emissions_4" vType="Car" speedFactor="0.93" vaporized="">
        <emissions CO_abs="1484.48" CO2_abs="288488.87" HC_abs="9.93" PMx_abs="32.03" NOx_abs="100.14" fuel_abs="93524.47" electricity_abs="0.00"/>
    </tripinfo>
    <tripinfo id="12" depart="24.00" departLane="E6_0" departPos="5.10" departSpeed="0.00" departDelay="0.00" arrival="147.00" arrivalLane="-E32_0" arrivalPos="266.06" arrivalSpeed="10.86" duration="123.00" routeLength="1239.52" waitingTime="0.00" waitingCount="0" stopTime="0.00" timeLoss="11.27" rerouteNo="0" devices="tripinfo_12 emissions_12" vType="Car" speedFactor="0.81" vaporized="">
        <emissions CO_abs="929.65" CO2_abs="236896.39" HC_abs="6.21" PMx_abs="25.10" NOx_abs="81.54" fuel_abs="76798.98" electricity_abs="0.00"/>
    </tripinfo>
    <tripinfo id="1" depart="2.00" departLane="-E29_0" departPos="5.10" departSpeed="0.00" departDelay="0.00" arrival="153.00" arrivalLane="-E24_0" arrivalPos="283.20" arrivalSpeed="13.16" duration="151.00" routeLength="1942.97" waitingTime="0.00" waitingCount="0" stopTime="0.00" timeLoss="15.13" rerouteNo="0" devices="tripinfo_1 emissions_1" vType="Car" speedFactor="1.04" vaporized="">
        <emissions CO_abs="2243.70" CO2_abs="363419.29" HC_abs="15.02" PMx_abs="42.09" NOx_abs="127.78" fuel_abs="117815.80" electricity_abs="0.00"/>
    </tripinfo>
    <tripinfo id="23" depart="46.00" departLane="-E16_0" departPos="5.10" departSpeed="0.00" departDelay="0.00" arrival="159.00" arrivalLane="-E29_0" arrivalPos="266.06" arrivalSpeed="13.72" duration="113.00" routeLength="1384.98" waitingTime="1.00" waitingCount="1" stopTime="0.00" timeLoss="17.64" rerouteNo="0" devices="tripinfo_23 emissions_23" vType="Car" speedFactor="1.07" vaporized="">
        <emissions CO_abs="1739.75" CO2_abs="293995.32" HC_abs="11.65" PMx_abs="32.67" NOx_abs="102.34" fuel_abs="95309.38" electricity_abs="0.00"/>
    </tripinfo>
    <tripinfo id="48" depart="96.00" departLane="E9_0" departPos="5.10" departSpeed="0.00" departDelay="0.00" arrival="161.00" arrivalLane="E10_0" arrivalPos="479.20" arrivalSpeed="13.47" duration="65.00" routeLength="772.65" waitingTime="0.00" waitingCount="0" stopTime="0.00" timeLoss="8.61" rerouteNo="0" devices="tripinfo_48 emissions_48" vType="Car" speedFactor="1.00" vaporized="">
        <emissions CO_abs="918.41" CO2_abs="163653.78" HC_abs="6.13" PMx_abs="16.72" NOx_abs="55.95" fuel_abs="53054.30" electricity_abs="0.00"/>
    </tripinfo>
    <tripinfo id="flow_z1.2" depart="2.00" departLane="-E1_0" departPos="5.10" departSpeed="7.75" departDelay="0.33" arrival="165.00" arrivalLane="E19_0" arrivalPos="283.20" arrivalSpeed="14.99" duration="163.00" routeLength="2181.19" waitingTime="0.00" waitingCount="0" stopTime="0.00" timeLoss="24.61" rerouteNo="0" devices="tripinfo_flow_z1.2 emissions_flow_z1.2" vType="Car" speedFactor="1.14" vaporized="">
        <emissions CO_abs="2788.24" CO2_abs="402511.31" HC_abs="18.65" PMx_abs="46.67" NOx_abs="144.14" fuel_abs="130488.93" electricity_abs="0.00"/>
    </tripinfo>
    <tripinfo id="flow_z1.0" depart="0.00" departLane="-E1_0" departPos="5.10" departSpeed="13.81" departDelay="0.00" arrival="169.00" arrivalLane="E19_0" arrivalPos="283.20" arrivalSpeed="12.59" duration="169.00" routeLength="2181.19" waitingTime="0.00" waitingCount="0" stopTime="0.00" timeLoss="9.80" rerouteNo="0" devices="tripinfo_flow_z1.0 emissions_flow_z1.0" vType="Car" speedFactor="0.99" vaporized="">
        <emissions CO_abs="2147.75" CO2_abs="353567.29" HC_abs="14.40" PMx_abs="44.33" NOx_abs="126.86" fuel_abs="114622.28" electricity_abs="0.00"/>
    </tripinfo>
    <tripinfo id="flow_z3.8" depart="15.00" departLane="-E28_1" departPos="5.10" departSpeed="0.86" departDelay="8.34" arrival="172.00" arrivalLane="-E29_0" arrivalPos="266.06" arrivalSpeed="13.97" duration="157.00" routeLength="1186.43" waitingTime="56.00" waitingCount="2" stopTime="0.00" timeLoss="75.52" rerouteNo="0" devices="tripinfo_flow_z3.8 emissions_flow_z3.8" vType="Car" speedFactor="1.07" vaporized="">
        <emissions CO_abs="1609.61" CO2_abs="353465.19" HC_abs="10.76" PMx_abs="27.14" NOx_abs="126.44" fuel_abs="114589.21" electricity_abs="0.00"/>
    </tripinfo>
    <tripinfo id="flow_z1.3" depart="4.00" departLane="-E1_0" departPos="5.10" departSpeed="8.02" departDelay="1.50" arrival="174.00" arrivalLane="E19_0" arrivalPos="283.20" arrivalSpeed="14.12" duration="170.00" routeLength="2181.19" waitingTime="0.00" waitingCount="0" stopTime="0.00" timeLoss="16.26" rerouteNo="0" devices="tripinfo_flow_z1.3 emissions_flow_z1.3" vType="Car" speedFactor="1.03" vaporized="">
        <emissions CO_abs="2484.06" CO2_abs="384384.55" HC_abs="16.60" PMx_abs="43.97" NOx_abs="137.20" fuel_abs="124612.59" electricity_abs="0.00"/>
    </tripinfo>
    <tripinfo id="flow_z1.1" depart="1.00" departLane="-E1_0" departPos="5.10" departSpeed="10.93" departDelay="0.17" arrival="176.00" arrivalLane="E19_0" arrivalPos="283.20" arrivalSpeed="13.03" duration="175.00" routeLength="2181.19" waitingTime="0.00" waitingCount="0" stopTime="0.00" timeLoss="9.85" rerouteNo="0" devices="tripinfo_flow_z1.1 emissions_flow_z1.1" vType="Car" speedFactor="0.96" vaporized="">
        <emissions CO_abs="1902.65" CO2_abs="351374.17" HC_abs="12.78" PMx_abs="45.74" NOx_abs="125.91" fuel_abs="113911.52" electricity_abs="0.00"/>
    </tripinfo>
    <tripinfo id="16" depart="32.00" departLane="E10_0" departPos="5.10" departSpeed="0.00" departDelay="0.00" arrival="178.00" arrivalLane="E7_0" arrivalPos="466.06" arrivalSpeed="13.96" duration="146.00" routeLength="1801.77" waitingTime="0.00" waitingCount="0" stopTime="0.00" timeLoss="19.27" rerouteNo="0" devices="tripinfo_16 emissions_16" vType="Car" speedFactor="1.05" vaporized="">
        <emissions CO_abs="2212.97" CO2_abs="363270.46" HC_abs="14.80" PMx_abs="39.57" NOx_abs="127.10" fuel_abs="117767.40" electricity_abs="0.00"/>
    </tripinfo>
    <tripinfo id="36" depart="72.00" departLane="E36_0" departPos="5.10" departSpeed="0.00" departDelay="0.00" arrival="178.00" arrivalLane="-E31_0" arrivalPos="279.20" arrivalSpeed="16.47" duration="106.00" routeLength="1568.07" waitingTime="0.00" waitingCount="0" stopTime="0.00" timeLoss="14.06" rerouteNo="0" devices="tripinfo_36 emissions_36" vType="Car" speedFactor="1.27" vaporized="">
        <emissions CO_abs="2972.25" CO2_abs="359176.47" HC_abs="19.89" PMx_abs="39.22" NOx_abs="129.53" fuel_abs="116439.83" electricity_abs="0.00"/>
    </tripinfo>
    <tripinfo id="49" depart="98.00" departLane="E7_0" departPos="5.10" departSpeed="0.00" departDelay="0.00" arrival="179.00" arrivalLane="E34_0" arrivalPos="266.06" arrivalSpeed="14.62" duration="81.00" routeLength="1101.24" waitingTime="0.00" waitingCount="0" stopTime="0.00" timeLoss="9.24" rerouteNo="0" devices="tripinfo_49 emissions_49" vType="Car" speedFactor="1.13" vaporized="">
        <emissions CO_abs="1519.76" CO2_abs="224836.28" HC_abs="10.18" PMx_abs="25.58" NOx_abs="79.24" fuel_abs="72888.87" electricity_abs="0.00"/>
    </tripinfo>
    <tripinfo id="flow_z3.7" depart="13.00" departLane="-E28_1" departPos="5.10" departSpeed="3.08" departDelay="7.17" arrival="186.00" arrivalLane="-E29_0" arrivalPos="266.06" arrivalSpeed="11.29" duration="173.00" routeLength="1186.43" waitingTime="61.00" waitingCount="1" stopTime="0.00" timeLoss="75.98" rerouteNo="0" devices="tripinfo_flow_z3.7 emissions_flow_z3.7" vType="Car" speedFactor="0.90" vaporized="">
        <emissions CO_abs="1279.33" CO2_abs="346625.71" HC_abs="8.53" PMx_abs="24.35" NOx_abs="123.79" fuel_abs="112372.22" electricity_abs="0.00"/>
    </tripinfo>
    <tripinfo id="flow_z2.1" depart="1.00" departLane="-E18_0" departPos="5.10" departSpeed="9.58" departDelay="0.17" arrival="191.00" arrivalLane="-E15_0" arrivalPos="479.20" arrivalSpeed="13.64" duration="190.00" routeLength="1988.38" waitingTime="36.00" waitingCount="1" stopTime="0.00" timeLoss="53.40" rerouteNo="0" devices="tripinfo_flow_z2.1 emissions_flow_z2.1" vType="Car" speedFactor="1.06" vaporized="">
        <emissions CO_abs="2440.76" CO2_abs="435344.32" HC_abs="16.33" PMx_abs="44.02" NOx_abs="156.70" fuel_abs="141133.39" electricity_abs="0.00"/>
    </tripinfo>
    <tripinfo id="flow_z2.3" depart="4.00" departLane="-E18_0" departPos="5.10" departSpeed="5.54" departDelay="1.50" arrival="191.00" arrivalLane="-E15_1" arrivalPos="479.20" arrivalSpeed="14.33" duration="187.00" routeLength="1984.04" waitingTime="23.00" waitingCount="1" stopTime="0.00" timeLoss="48.85" rerouteNo="0" devices="tripinfo_flow_z2.3 emissions_flow_z2.3" vType="Car" speedFactor="1.05" vaporized="">
        <emissions CO_abs="2515.14" CO2_abs="425251.23" HC_abs="16.75" PMx_abs="38.70" NOx_abs="150.80" fuel_abs="137860.97" electricity_abs="0.00"/>
    </tripinfo>
    <tripinfo id="flow_z3.11" depart="23.00" departLane="-E28_1" departPos="5.10" departSpeed="5.86" departDelay="13.84" arrival="194.00" arrivalLane="-E29_1" arrivalPos="266.06" arrivalSpeed="14.61" duration="171.00" routeLength="1186.43" waitingTime="49.00" waitingCount="1" stopTime="0.00" timeLoss="88.65" rerouteNo="0" devices="tripinfo_flow_z3.11 emissions_flow_z3.11" vType="Car" speedFactor="1.06" vaporized="">
        <emissions CO_abs="1564.61" CO2_abs="362363.29" HC_abs="10.40" PMx_abs="24.57" NOx_abs="127.50" fuel_abs="117473.70" electricity_abs="0.00"/>
    </tripinfo>
    <tripinfo id="flow_z2.5" depart="8.00" departLane="-E18_0" departPos="5.10" departSpeed="5.48" departDelay="3.84" arrival="197.00" arrivalLane="-E15_1" arrivalPos="479.20" arrivalSpeed="14.18" duration="189.00" routeLength="1984.04" waitingTime="5.00" waitingCount="2" stopTime="0.00" timeLoss="52.62" rerouteNo="0" devices="tripinfo_flow_z2.5 emissions_flow_z2.5" vType="Car" speedFactor="1.06" vaporized="">
        <emissions CO_abs="2197.26" CO2_abs="412263.74" HC_abs="14.65" PMx_abs="39.87" NOx_abs="142.67" fuel_abs="133650.31" electricity_abs="0.00"/>
    </tripinfo>
    <tripinfo id="flow_z2.0" depart="0.00" departLane="-E18_0" departPos="5.10" departSpeed="12.79" departDelay="0.00" arrival="199.00" arrivalLane="-E15_0" arrivalPos="479.20" arrivalSpeed="12.14" duration="199.00" routeLength="1988.38" waitingTime="25.00" waitingCount="1" stopTime="0.00" timeLoss="41.47" rerouteNo="0" devices="tripinfo_flow_z2.0 emissions_flow_z2.0" vType="Car" speedFactor="0.92" vaporized="">
        <emissions CO_abs="2012.98" CO2_abs="416663.02" HC_abs="13.45" PMx_abs="40.92" NOx_abs="147.21" fuel_abs="135077.12" electricity_abs="0.00"/>
    </tripinfo>
    <tripinfo id="18" depart="36.00" departLane="E32_0" departPos="5.10" departSpeed="0.00" departDelay="0.00" arrival="199.00" arrivalLane="E17_0" arrivalPos="465.43" arrivalSpeed="8.33" duration="163.00" routeLength="1839.24" waitingTime="0.00" waitingCount="0" stopTime="0.00" timeLoss="21.10" rerouteNo="0" devices="tripinfo_18 emissions_18" vType="Car" speedFactor="0.96" vaporized="">
        <emissions CO_abs="1963.60" CO2_abs="369915.78" HC_abs="13.11" PMx_abs="39.28" NOx_abs="128.45" fuel_abs="119921.98" electricity_abs="0.00"/>
    </tripinfo>
    <tripinfo id="flow_z2.4" depart="6.00" departLane="-E18_0" departPos="5.10" departSpeed="5.64" departDelay="2.67" arrival="199.00" arrivalLane="-E15_1" arrivalPos="479.20" arrivalSpeed="14.36" duration="193.00" routeLength="1988.38" waitingTime="5.00" waitingCount="1" stopTime="0.00" timeLoss="55.39" rerouteNo="0" devices="tripinfo_flow_z2.4 emissions_flow_z2.4" vType="Car" speedFactor="1.05" vaporized="">
        <emissions CO_abs="2162.15" CO2_abs="430015.67" HC_abs="14.43" PMx_abs="42.89" NOx_abs="148.36" fuel_abs="139405.47" electricity_abs="0.00"/>
    </tripinfo>
    <tripinfo id="flow_z3.14" depart="29.00" departLane="-E28_1" departPos="5.10" departSpeed="8.13" departDelay="17.34" arrival="200.00" arrivalLane="-E29_1" arrivalPos="266.06" arrivalSpeed="11.93" duration="171.00" routeLength="1186.43" waitingTime="43.00" waitingCount="1" stopTime="0.00" timeLoss="76.70" rerouteNo="0" devices="tripinfo_flow_z3.14 emissions_flow_z3.14" vType="Car" speedFactor="0.93" vaporized="">
        <emissions CO_abs="1311.38" CO2_abs="343337.37" HC_abs="8.72" PMx_abs="23.99" NOx_abs="119.59" fuel_abs="111305.79" electricity_abs="0.00"/>
    </tripinfo>
    <tripinfo id="3" depart="6.00" departLane="E37_0" departPos="5.10" departSpeed="0.00" departDelay="0.00" arrival="201.00" arrivalLane="-E14_1" arrivalPos="279.20" arrivalSpeed="13.49" duration="195.00" routeLength="1837.99" waitingTime="47.00" waitingCount="1" stopTime="0.00" timeLoss="67.00" rerouteNo="0" devices="tripinfo_3 emissions_3" vType="Car" speedFactor="1.06" vaporized="">
        <emissions CO_abs="2442.34" CO2_abs="458460.92" HC_abs="16.32" PMx_abs="40.54" NOx_abs="163.92" fuel_abs="148627.41" electricity_abs="0.00"/>
    </tripinfo>
    <tripinfo id="54" depart="108.00" departLane="-E6_0" departPos="5.10" departSpeed="0.00" departDelay="0.00" arrival="201.00" arrivalLane="E6_1" arrivalPos="466.06" arrivalSpeed="7.17" duration="93.00" routeLength="1043.03" waitingTime="0.00" waitingCount="0" stopTime="0.00" timeLoss="14.47" rerouteNo="0" devices="tripinfo_54 emissions_54" vType="Car" speedFactor="0.98" vaporized="">
        <emissions CO_abs="1145.65" CO2_abs="214765.16" HC_abs="7.64" PMx_abs="21.17" NOx_abs="73.00" fuel_abs="69623.92" electricity_abs="0.00"/>
    </tripinfo>
    <tripinfo id="flow_z2.8" depart="14.00" departLane="-E18_0" departPos="5.10" departSpeed="5.60" departDelay="7.34" arrival="201.00" arrivalLane="-E15_0" arrivalPos="479.20" arrivalSpeed="13.82" duration="187.00" routeLength="1984.04" waitingTime="0.00" waitingCount="0" stopTime="0.00" timeLoss="44.23" rerouteNo="0" devices="tripinfo_flow_z2.8 emissions_flow_z2.8" vType="Car" speedFactor="1.01" vaporized="">
        <emissions CO_abs="2096.10" CO2_abs="397480.12" HC_abs="13.97" PMx_abs="39.97" NOx_abs="137.92" fuel_abs="128857.97" electricity_abs="0.00"/>
    </tripinfo>
    <tripinfo id="flow_z3.17" depart="35.00" departLane="-E28_1" departPos="5.10" departSpeed="2.58" departDelay="20.84" arrival="201.00" arrivalLane="-E29_1" arrivalPos="266.06" arrivalSpeed="12.78" duration="166.00" routeLength="1186.43" waitingTime="41.00" waitingCount="1" stopTime="0.00" timeLoss="75.25" rerouteNo="0" devices="tripinfo_flow_z3.17 emissions_flow_z3.17" vType="Car" speedFactor="0.96" vaporized="">
        <emissions CO_abs="1394.58" CO2_abs="348603.50" HC_abs="9.27" PMx_abs="24.51" NOx_abs="121.25" fuel_abs="113012.89" electricity_abs="0.00"/>
    </tripinfo>
    <tripinfo id="flow_z3.18" depart="38.00" departLane="-E28_1" departPos="5.10" departSpeed="4.76" departDelay="23.01" arrival="203.00" arrivalLane="-E29_1" arrivalPos="266.06" arrivalSpeed="14.40" duration="165.00" routeLength="1186.43" waitingTime="38.00" waitingCount="2" stopTime="0.00" timeLoss="80.85" rerouteNo="0" devices="tripinfo_flow_z3.18 emissions_flow_z3.18" vType="Car" speedFactor="1.04" vaporized="">
        <emissions CO_abs="1811.48" CO2_abs="380696.05" HC_abs="12.01" PMx_abs="24.75" NOx_abs="131.83" fuel_abs="123416.55" electricity_abs="0.00"/>
    </tripinfo>
    <tripinfo id="flow_z3.9" depart="19.00" departLane="-E28_1" departPos="5.10" departSpeed="5.82" departDelay="11.50" arrival="204.00" arrivalLane="-E29_1" arrivalPos="266.06" arrivalSpeed="15.88" duration="185.00" routeLength="1186.43" waitingTime="55.00" waitingCount="2" stopTime="0.00" timeLoss="113.48" rerouteNo="0" devices="tripinfo_flow_z3.9 emissions_flow_z3.9" vType="Car" speedFactor="1.21" vaporized="">
        <emissions CO_abs="1788.94" CO2_abs="420991.36" HC_abs="11.87" PMx_abs="26.61" NOx_abs="146.90" fuel_abs="136480.10" electricity_abs="0.00"/>
    </tripinfo>
    <tripinfo id="flow_z3.13" depart="27.00" departLane="-E28_1" departPos="5.10" departSpeed="6.97" departDelay="16.17" arrival="204.00" arrivalLane="-E29_0" arrivalPos="266.06" arrivalSpeed="8.33" duration="177.00" routeLength="1186.43" waitingTime="50.00" waitingCount="1" stopTime="0.00" timeLoss="80.48" rerouteNo="0" devices="tripinfo_flow_z3.13 emissions_flow_z3.13" vType="Car" speedFactor="0.90" vaporized="">
        <emissions CO_abs="845.05" CO2_abs="325374.45" HC_abs="5.65" PMx_abs="26.62" NOx_abs="118.68" fuel_abs="105483.25" electricity_abs="0.00"/>
    </tripinfo>
    <tripinfo id="flow_z2.9" depart="16.00" departLane="-E18_0" departPos="5.10" departSpeed="3.89" departDelay="8.50" arrival="205.00" arrivalLane="-E15_1" arrivalPos="479.20" arrivalSpeed="14.20" duration="189.00" routeLength="1984.04" waitingTime="0.00" waitingCount="0" stopTime="0.00" timeLoss="54.63" rerouteNo="0" devices="tripinfo_flow_z2.9 emissions_flow_z2.9" vType="Car" speedFactor="1.08" vaporized="">
        <emissions CO_abs="2600.76" CO2_abs="444978.92" HC_abs="17.29" PMx_abs="39.09" NOx_abs="151.83" fuel_abs="144255.90" electricity_abs="0.00"/>
    </tripinfo>
    <tripinfo id="flow_z2.10" depart="18.00" departLane="-E18_0" departPos="5.10" departSpeed="2.16" departDelay="9.67" arrival="207.00" arrivalLane="-E15_0" arrivalPos="479.20" arrivalSpeed="12.59" duration="189.00" routeLength="1988.38" waitingTime="0.00" waitingCount="0" stopTime="0.00" timeLoss="39.19" rerouteNo="0" devices="tripinfo_flow_z2.10 emissions_flow_z2.10" vType="Car" speedFactor="0.97" vaporized="">
        <emissions CO_abs="2088.37" CO2_abs="406204.05" HC_abs="13.91" PMx_abs="38.98" NOx_abs="138.36" fuel_abs="131685.95" electricity_abs="0.00"/>
    </tripinfo>
    <tripinfo id="flow_z2.12" depart="23.00" departLane="-E18_0" departPos="5.10" departSpeed="2.51" departDelay="13.00" arrival="207.00" arrivalLane="-E15_1" arrivalPos="479.20" arrivalSpeed="15.96" duration="184.00" routeLength="1984.04" waitingTime="0.00" waitingCount="0" stopTime="0.00" timeLoss="64.85" rerouteNo="0" devices="tripinfo_flow_z2.12 emissions_flow_z2.12" vType="Car" speedFactor="1.22" vaporized="">
        <emissions CO_abs="2589.00" CO2_abs="433332.77" HC_abs="17.24" PMx_abs="41.47" NOx_abs="150.46" fuel_abs="140480.57" electricity_abs="0.00"/>
    </tripinfo>
    <tripinfo id="flow_z3.10" depart="21.00" departLane="-E28_1" departPos="5.10" departSpeed="6.01" departDelay="12.67" arrival="210.00" arrivalLane="-E29_1" arrivalPos="266.06" arrivalSpeed="13.50" duration="189.00" routeLength="1186.43" waitingTime="54.00" waitingCount="1" stopTime="0.00" timeLoss="103.61" rerouteNo="0" devices="tripinfo_flow_z3.10 emissions_flow_z3.10" vType="Car" speedFactor="1.02" vaporized="">
        <emissions CO_abs="1333.44" CO2_abs="388693.68" HC_abs="8.87" PMx_abs="26.21" NOx_abs="135.45" fuel_abs="126009.91" electricity_abs="0.00"/>
    </tripinfo>
    <tripinfo id="flow_z3.23" depart="48.00" departLane="-E28_1" departPos="5.10" departSpeed="5.07" departDelay="28.84" arrival="212.00" arrivalLane="-E29_0" arrivalPos="266.06" arrivalSpeed="13.35" duration="164.00" routeLength="1186.43" waitingTime="32.00" waitingCount="1" stopTime="0.00" timeLoss="78.52" rerouteNo="0" devices="tripinfo_flow_z3.23 emissions_flow_z3.23" vType="Car" speedFactor="1.03" vaporized="">
        <emissions CO_abs="1445.50" CO2_abs="344273.09" HC_abs="9.60" PMx_abs="23.74" NOx_abs="117.53" fuel_abs="111608.81" electricity_abs="0.00"/>
    </tripinfo>
    <tripinfo id="41" depart="82.00" departLane="E14_0" departPos="5.10" departSpeed="0.00" departDelay="0.00" arrival="216.00" arrivalLane="E37_0" arrivalPos="266.06" arrivalSpeed="13.94" duration="134.00" routeLength="1537.42" waitingTime="2.00" waitingCount="1" stopTime="0.00" timeLoss="24.01" rerouteNo="0" devices="tripinfo_41 emissions_41" vType="Car" speedFactor="1.03" vaporized="">
        <emissions CO_abs="1963.26" CO2_abs="337967.88" HC_abs="13.10" PMx_abs="33.47" NOx_abs="116.13" fuel_abs="109564.52" electricity_abs="0.00"/>
    </tripinfo>
    <tripinfo id="flow_z3.12" depart="25.00" departLane="-E28_1" departPos="5.10" departSpeed="5.78" departDelay="15.00" arrival="216.00" arrivalLane="-E29_0" arrivalPos="266.06" arrivalSpeed="13.00" duration="191.00" routeLength="1186.43" waitingTime="50.00" waitingCount="1" stopTime="0.00" timeLoss="98.74" rerouteNo="0" devices="tripinfo_flow_z3.12 emissions_flow_z3.12" vType="Car" speedFactor="0.94" vaporized="">
        <emissions CO_abs="1257.44" CO2_abs="388474.15" HC_abs="8.35" PMx_abs="26.03" NOx_abs="133.36" fuel_abs="125938.60" electricity_abs="0.00"/>
    </tripinfo>
    <tripinfo id="42" depart="84.00" departLane="-E37_0" departPos="5.10" departSpeed="0.00" departDelay="0.00" arrival="220.00" arrivalLane="-E24_0" arrivalPos="283.20" arrivalSpeed="13.69" duration="136.00" routeLength="1551.74" waitingTime="5.00" waitingCount="1" stopTime="0.00" timeLoss="26.45" rerouteNo="0" devices="tripinfo_42 emissions_42" vType="Car" speedFactor="1.04" vaporized="">
        <emissions CO_abs="2026.21" CO2_abs="343063.37" HC_abs="13.53" PMx_abs="33.70" NOx_abs="118.70" fuel_abs="111216.45" electricity_abs="0.00"/>
    </tripinfo>
    <tripinfo id="68" depart="136.00" departLane="-E13_0" departPos="5.10" departSpeed="0.00" departDelay="0.00" arrival="220.00" arrivalLane="E27_1" arrivalPos="279.20" arrivalSpeed="13.42" duration="84.00" routeLength="772.65" waitingTime="19.00" waitingCount="1" stopTime="0.00" timeLoss="29.98" rerouteNo="0" devices="tripinfo_68 emissions_68" vType="Car" speedFactor="1.05" vaporized="">
        <emissions CO_abs="997.20" CO2_abs="198959.91" HC_abs="6.66" PMx_abs="17.08" NOx_abs="69.68" fuel_abs="64500.25" electricity_abs="0.00"/>
    </tripinfo>
    <tripinfo id="flow_z1.7" depart="11.00" departLane="-E1_0" departPos="5.10" departSpeed="6.50" departDelay="5.17" arrival="225.00" arrivalLane="E19_0" arrivalPos="283.20" arrivalSpeed="13.81" duration="214.00" routeLength="2181.19" waitingTime="34.00" waitingCount="1" stopTime="0.00" timeLoss="67.52" rerouteNo="0" devices="tripinfo_flow_z1.7 emissions_flow_z1.7" vType="Car" speedFactor="1.08" vaporized="">
        <emissions CO_abs="2639.72" CO2_abs="487112.75" HC_abs="17.63" PMx_abs="47.62" NOx_abs="173.30" fuel_abs="157916.02" electricity_abs="0.00"/>
    </tripinfo>