<?xml version="1.0" encoding="UTF-8"?>

<!-- generated on 2026-05-30T17:28:46.367180+00:00 by Eclipse SUMO sumo 1.26.0
<sumoConfiguration xmlns:xsi="http://www.w3.org/2001/XMLSchema-instance" xsi:noNamespaceSchemaLocation="http://sumo.dlr.de/xsd/sumoConfiguration.xsd">

    <input>
        <net-file value="manhattan.net.xml"/>
        <route-files value="routes.rou.xml,background.rou.xml"/>
        <additional-files value="mosaic_types.add.xml"/>
    </input>

    <output>
        <tripinfo-output value="/home/netsim/opt/tpnpr/tripinfo.xml"/>
    </output>

    <time>
        <begin value="0"/>
        <end value="3600"/>
        <step-length value="1.00"/>
    </time>

    <processing>
        <ignore-route-errors value="true"/>
        <time-to-teleport value="0"/>
    </processing>

    <report>
        <verbose value="true"/>
        <no-step-log value="true"/>
    </report>

    <emissions>
        <device.emissions.probability value="1.0"/>
    </emissions>

    <traci_server>
        <remote-port value="37449"/>
    </traci_server>

    <random_number>
        <seed value="100000"/>
    </random_number>

</sumoConfiguration>
-->

<tripinfos xmlns:xsi="http://www.w3.org/2001/XMLSchema-instance" xsi:noNamespaceSchemaLocation="http://sumo.dlr.de/xsd/tripinfo_file.xsd">
    <tripinfo id="13" depart="26.00" departLane="-E15_0" departPos="5.10" departSpeed="0.00" departDelay="0.00" arrival="64.00" arrivalLane="-E15_0" arrivalPos="479.20" arrivalSpeed="14.54" duration="38.00" routeLength="474.10" waitingTime="0.00" waitingCount="0" stopTime="0.00" timeLoss="5.17" rerouteNo="0" devices="tripinfo_13 emissions_13" vType="Car" speedFactor="1.06" vaporized="">
        <emissions CO_abs="633.56" CO2_abs="106877.59" HC_abs="4.24" PMx_abs="11.51" NOx_abs="36.78" fuel_abs="34648.22" electricity_abs="0.00"/>
    </tripinfo>
    <tripinfo id="22" depart="44.00" departLane="-E14_0" departPos="5.10" departSpeed="0.00" departDelay="0.00" arrival="88.00" arrivalLane="-E25_0" arrivalPos="279.20" arrivalSpeed="13.77" duration="44.00" routeLength="574.10" waitingTime="0.00" waitingCount="0" stopTime="0.00" timeLoss="5.40" rerouteNo="0" devices="tripinfo_22 emissions_22" vType="Car" speedFactor="1.08" vaporized="">
        <emissions CO_abs="765.18" CO2_abs="122611.21" HC_abs="5.12" PMx_abs="13.65" NOx_abs="42.57" fuel_abs="39748.86" electricity_abs="0.00"/>
    </tripinfo>
    <tripinfo id="flow_z3.0" depart="0.00" departLane="-E28_1" departPos="5.10" departSpeed="12.68" departDelay="0.00" arrival="103.00" arrivalLane="-E29_0" arrivalPos="266.06" arrivalSpeed="12.37" duration="103.00" routeLength="1186.43" waitingTime="0.00" waitingCount="0" stopTime="0.00" timeLoss="7.78" rerouteNo="0" devices="tripinfo_flow_z3.0 emissions_flow_z3.0" vType="Car" speedFactor="0.91" vaporized="">
        <emissions CO_abs="955.43" CO2_abs="197500.53" HC_abs="6.41" PMx_abs="24.02" NOx_abs="69.74" fuel_abs="64027.41" electricity_abs="0.00"/>
    </tripinfo>
    <tripinfo id="flow_z3.2" depart="2.00" departLane="-E28_1" departPos="5.10" departSpeed="5.68" departDelay="0.33" arrival="104.00" arrivalLane="-E29_1" arrivalPos="266.06" arrivalSpeed="12.68" duration="102.00" routeLength="1186.43" waitingTime="0.00" waitingCount="0" stopTime="0.00" timeLoss="13.80" rerouteNo="0" devices="tripinfo_flow_z3.2 emissions_flow_z3.2" vType="Car" speedFactor="0.99" vaporized="">
        <emissions CO_abs="1388.13" CO2_abs="236328.77" HC_abs="9.25" PMx_abs="24.52" NOx_abs="82.31" fuel_abs="76614.71" electricity_abs="0.00"/>
    </tripinfo>
    <tripinfo id="flow_z3.1" depart="1.00" departLane="-E28_1" departPos="5.10" departSpeed="10.10" departDelay="0.17" arrival="109.00" arrivalLane="-E29_0" arrivalPos="266.06" arrivalSpeed="12.11" duration="108.00" routeLength="1186.43" waitingTime="0.00" waitingCount="0" stopTime="0.00" timeLoss="11.13" rerouteNo="0" devices="tripinfo_flow_z3.1 emissions_flow_z3.1" vType="Car" speedFactor="0.90" vaporized="">
        <emissions CO_abs="1197.02" CO2_abs="228263.08" HC_abs="7.99" PMx_abs="24.26" NOx_abs="79.47" fuel_abs="74000.05" electricity_abs="0.00"/>
    </tripinfo>
    <tripinfo id="flow_z3.3" depart="4.00" departLane="-E28_1" departPos="5.10" departSpeed="5.55" departDelay="1.50" arrival="109.00" arrivalLane="-E29_1" arrivalPos="266.06" arrivalSpeed="13.19" duration="105.00" routeLength="1186.43" waitingTime="0.00" waitingCount="0" stopTime="0.00" timeLoss="17.43" rerouteNo="0" devices="tripinfo_flow_z3.3 emissions_flow_z3.3" vType="Car" speedFactor="0.99" vaporized="">
        <emissions CO_abs="1451.57" CO2_abs="245268.15" HC_abs="9.66" PMx_abs="23.80" NOx_abs="84.75" fuel_abs="79512.64" electricity_abs="0.00"/>
    </tripinfo>
    <tripinfo id="flow_z3.4" depart="6.00" departLane="-E28_1" departPos="5.10" departSpeed="4.72" departDelay="2.67" arrival="111.00" arrivalLane="-E29_0" arrivalPos="266.06" arrivalSpeed="12.97" duration="105.00" routeLength="1186.43" waitingTime="0.00" waitingCount="0" stopTime="0.00" timeLoss="18.61" rerouteNo="0" devices="tripinfo_flow_z3.4 emissions_flow_z3.4" vType="Car" speedFactor="1.01" vaporized="">
        <emissions CO_abs="1493.44" CO2_abs="249809.84" HC_abs="9.94" PMx_abs="24.14" NOx_abs="86.50" fuel_abs="80984.98" electricity_abs="0.00"/>
    </tripinfo>
    <tripinfo id="flow_z3.6" depart="10.00" departLane="-E28_1" departPos="5.10" departSpeed="2.18" departDelay="5.00" arrival="115.00" arrivalLane="-E29_1" arrivalPos="266.06" arrivalSpeed="15.02" duration="105.00" routeLength="1186.43" waitingTime="0.00" waitingCount="0" stopTime="0.00" timeLoss="25.40" rerouteNo="0" devices="tripinfo_flow_z3.6 emissions_flow_z3.6" vType="Car" speedFactor="1.10" vaporized="">
        <emissions CO_abs="1729.82" CO2_abs="280795.38" HC_abs="11.52" PMx_abs="26.26" NOx_abs="96.40" fuel_abs="91029.92" electricity_abs="0.00"/>
    </tripinfo>
    <tripinfo id="flow_z3.5" depart="8.00" departLane="-E28_1" departPos="5.10" departSpeed="3.73" departDelay="3.84" arrival="116.00" arrivalLane="-E29_0" arrivalPos="266.06" arrivalSpeed="12.72" duration="108.00" routeLength="1186.43" waitingTime="0.00" waitingCount="0" stopTime="0.00" timeLoss="12.70" rerouteNo="0" devices="tripinfo_flow_z3.5 emissions_flow_z3.5" vType="Car" speedFactor="0.92" vaporized="">
        <emissions CO_abs="1209.66" CO2_abs="229992.15" HC_abs="8.07" PMx_abs="23.84" NOx_abs="79.18" fuel_abs="74560.49" electricity_abs="0.00"/>
    </tripinfo>
    <tripinfo id="21" depart="42.00" departLane="-E25_0" departPos="5.10" departSpeed="0.00" departDelay="0.00" arrival="121.00" arrivalLane="-E3_0" arrivalPos="483.20" arrivalSpeed="14.86" duration="79.00" routeLength="1079.36" waitingTime="0.00" waitingCount="0" stopTime="0.00" timeLoss="7.43" rerouteNo="0" devices="tripinfo_21 emissions_21" vType="Car" speedFactor="1.10" vaporized="">
        <emissions CO_abs="1345.62" CO2_abs="201735.78" HC_abs="9.01" PMx_abs="23.62" NOx_abs="71.35" fuel_abs="65400.04" electricity_abs="0.00"/>
    </tripinfo>
    <tripinfo id="30" depart="60.00" departLane="E9_0" departPos="5.10" departSpeed="0.00" departDelay="0.00" arrival="135.00" arrivalLane="E19_0" arrivalPos="283.20" arrivalSpeed="13.67" duration="75.00" routeLength="878.10" waitingTime="3.00" waitingCount="1" stopTime="0.00" timeLoss="15.43" rerouteNo="0" devices="tripinfo_30 emissions_30" vType="Car" speedFactor="1.08" vaporized="">
        <emissions CO_abs="1167.04" CO2_abs="199077.87" HC_abs="7.82" PMx_abs="20.50" NOx_abs="69.09" fuel_abs="64538.28" electricity_abs="0.00"/>
    </tripinfo>
    <tripinfo id="4" depart="8.00" departLane="-E39_0" departPos="5.10" departSpeed="0.00" departDelay="0.00" arrival="142.00" arrivalLane="-E10_0" arrivalPos="479.20" arrivalSpeed="11.81" duration="134.00" routeLength="1552.66" waitingTime="0.00" waitingCount="0" stopTime="0.00" timeLoss="12.27" rerouteNo="0" devices="tripinfo_4 emissions_4" vType="Car" speedFactor="0.93" vaporized="">
        <emissions CO_abs="1484.48" CO2_abs="288488.87" HC_abs="9.93" PMx_abs="32.03" NOx_abs="100.14" fuel_abs="93524.47" electricity_abs="0.00"/>
    </tripinfo>
    <tripinfo id="12" depart="24.00" departLane="E6_0" departPos="5.10" departSpeed="0.00" departDelay="0.00" arrival="146.00" arrivalLane="-E32_0" arrivalPos="266.06" arrivalSpeed="10.55" duration="122.00" routeLength="1239.52" waitingTime="0.00" waitingCount="0" stopTime="0.00" timeLoss="11.13" rerouteNo="0" devices="tripinfo_12 emissions_12" vType="Car" speedFactor="0.81" vaporized="">
        <emissions CO_abs="928.92" CO2_abs="240567.16" HC_abs="6.21" PMx_abs="26.19" NOx_abs="83.01" fuel_abs="77989.04" electricity_abs="0.00"/>
    </tripinfo>
    <tripinfo id="1" depart="2.00" departLane="-E29_0" departPos="5.10" departSpeed="0.00" departDelay="0.00" arrival="153.00" arrivalLane="-E24_0" arrivalPos="283.20" arrivalSpeed="13.21" duration="151.00" routeLength="1942.97" waitingTime="0.00" waitingCount="0" stopTime="0.00" timeLoss="15.14" rerouteNo="0" devices="tripinfo_1 emissions_1" vType="Car" speedFactor="1.04" vaporized="">
        <emissions CO_abs="2222.39" CO2_abs="361710.86" HC_abs="14.89" PMx_abs="42.03" NOx_abs="127.17" fuel_abs="117261.96" electricity_abs="0.00"/>
    </tripinfo>
    <tripinfo id="23" depart="46.00" departLane="-E16_0" departPos="5.10" departSpeed="0.00" departDelay="0.00" arrival="159.00" arrivalLane="-E29_0" arrivalPos="266.06" arrivalSpeed="13.75" duration="113.00" routeLength="1384.98" waitingTime="1.00" waitingCount="1" stopTime="0.00" timeLoss="17.93" rerouteNo="0" devices="tripinfo_23 emissions_23" vType="Car" speedFactor="1.07" vaporized="">
        <emissions CO_abs="1773.71" CO2_abs="295975.18" HC_abs="11.88" PMx_abs="31.94" NOx_abs="102.78" fuel_abs="95951.16" electricity_abs="0.00"/>
    </tripinfo>
    <tripinfo id="48" depart="96.00" departLane="E9_0" departPos="5.10" departSpeed="0.00" departDelay="0.00" arrival="160.00" arrivalLane="E10_0" arrivalPos="479.20" arrivalSpeed="13.78" duration="64.00" routeLength="772.65" waitingTime="0.00" waitingCount="0" stopTime="0.00" timeLoss="7.49" rerouteNo="0" devices="tripinfo_48 emissions_48" vType="Car" speedFactor="1.00" vaporized="">
        <emissions CO_abs="901.42" CO2_abs="165339.27" HC_abs="6.03" PMx_abs="18.29" NOx_abs="57.11" fuel_abs="53600.82" electricity_abs="0.00"/>
    </tripinfo>
    <tripinfo id="flow_z1.2" depart="2.00" departLane="-E1_0" departPos="5.10" departSpeed="7.75" departDelay="0.33" arrival="164.00" arrivalLane="E19_0" arrivalPos="283.20" arrivalSpeed="15.25" duration="162.00" routeLength="2181.19" waitingTime="0.00" waitingCount="0" stopTime="0.00" timeLoss="23.25" rerouteNo="0" devices="tripinfo_flow_z1.2 emissions_flow_z1.2" vType="Car" speedFactor="1.14" vaporized="">
        <emissions CO_abs="2666.84" CO2_abs="389936.26" HC_abs="17.86" PMx_abs="47.12" NOx_abs="140.21" fuel_abs="126412.38" electricity_abs="0.00"/>
    </tripinfo>
    <tripinfo id="flow_z1.0" depart="0.00" departLane="-E1_0" departPos="5.10" departSpeed="13.81" departDelay="0.00" arrival="169.00" arrivalLane="E19_0" arrivalPos="283.20" arrivalSpeed="12.93" duration="169.00" routeLength="2181.19" waitingTime="0.00" waitingCount="0" stopTime="0.00" timeLoss="9.75" rerouteNo="0" devices="tripinfo_flow_z1.0 emissions_flow_z1.0" vType="Car" speedFactor="0.99" vaporized="">
        <emissions CO_abs="2062.29" CO2_abs="349728.87" HC_abs="13.85" PMx_abs="45.28" NOx_abs="125.61" fuel_abs="113378.01" electricity_abs="0.00"/>
    </tripinfo>
    <tripinfo id="flow_z3.8" depart="15.00" departLane="-E28_1" departPos="5.10" departSpeed="0.86" departDelay="8.34" arrival="173.00" arrivalLane="-E29_0" arrivalPos="266.06" arrivalSpeed="14.30" duration="158.00" routeLength="1186.43" waitingTime="56.00" waitingCount="2" stopTime="0.00" timeLoss="76.99" rerouteNo="0" devices="tripinfo_flow_z3.8 emissions_flow_z3.8" vType="Car" speedFactor="1.07" vaporized="">
        <emissions CO_abs="1566.67" CO2_abs="359638.45" HC_abs="10.48" PMx_abs="29.12" NOx_abs="128.37" fuel_abs="116590.59" electricity_abs="0.00"/>
    </tripinfo>
    <tripinfo id="flow_z1.3" depart="4.00" departLane="-E1_0" departPos="5.10" departSpeed="8.02" departDelay="1.50" arrival="174.00" arrivalLane="E19_0" arrivalPos="283.20" arrivalSpeed="13.17" duration="170.00" routeLength="2181.19" waitingTime="0.00" waitingCount="0" stopTime="0.00" timeLoss="16.22" rerouteNo="0" devices="tripinfo_flow_z1.3 emissions_flow_z1.3" vType="Car" speedFactor="1.03" vaporized="">
        <emissions CO_abs="2383.17" CO2_abs="381743.83" HC_abs="15.95" PMx_abs="45.62" NOx_abs="136.41" fuel_abs="123756.63" electricity_abs="0.00"/>
    </tripinfo>
    <tripinfo id="flow_z1.1" depart="1.00" departLane="-E1_0" departPos="5.10" departSpeed="10.93" departDelay="0.17" arrival="177.00" arrivalLane="E19_0" arrivalPos="283.20" arrivalSpeed="12.39" duration="176.00" routeLength="2181.19" waitingTime="0.00" waitingCount="0" stopTime="0.00" timeLoss="10.11" rerouteNo="0" devices="tripinfo_flow_z1.1 emissions_flow_z1.1" vType="Car" speedFactor="0.96" vaporized="">
        <emissions CO_abs="1951.34" CO2_abs="358212.74" HC_abs="13.10" PMx_abs="46.45" NOx_abs="128.41" fuel_abs="116128.50" electricity_abs="0.00"/>
    </tripinfo>
    <tripinfo id="16" depart="32.00" departLane="E10_0" departPos="5.10" departSpeed="0.00" departDelay="0.00" arrival="177.00" arrivalLane="E7_0" arrivalPos="466.06" arrivalSpeed="13.35" duration="145.00" routeLength="1801.77" waitingTime="0.00" waitingCount="0" stopTime="0.00" timeLoss="19.18" rerouteNo="0" devices="tripinfo_16 emissions_16" vType="Car" speedFactor="1.05" vaporized="">
        <emissions CO_abs="2170.50" CO2_abs="352312.81" HC_abs="14.51" PMx_abs="37.43" NOx_abs="122.93" fuel_abs="114215.09" electricity_abs="0.00"/>
    </tripinfo>
    <tripinfo id="36" depart="72.00" departLane="E36_0" departPos="5.10" departSpeed="0.00" departDelay="0.00" arrival="178.00" arrivalLane="-E31_0" arrivalPos="279.20" arrivalSpeed="17.13" duration="106.00" routeLength="1568.07" waitingTime="0.00" waitingCount="0" stopTime="0.00" timeLoss="14.35" rerouteNo="0" devices="tripinfo_36 emissions_36" vType="Car" speedFactor="1.27" vaporized="">
        <emissions CO_abs="2923.62" CO2_abs="354065.13" HC_abs="19.57" PMx_abs="39.26" NOx_abs="127.82" fuel_abs="114782.83" electricity_abs="0.00"/>
    </tripinfo>
    <tripinfo id="49" depart="98.00" departLane="E7_0" departPos="5.10" departSpeed="0.00" departDelay="0.00" arrival="183.00" arrivalLane="E34_0" arrivalPos="266.06" arrivalSpeed="8.33" duration="85.00" routeLength="1101.24" waitingTime="0.00" waitingCount="0" stopTime="0.00" timeLoss="13.42" rerouteNo="0" devices="tripinfo_49 emissions_49" vType="Car" speedFactor="1.13" vaporized="">
        <emissions CO_abs="1437.50" CO2_abs="216077.22" HC_abs="9.61" PMx_abs="23.12" NOx_abs="75.94" fuel_abs="70049.26" electricity_abs="0.00"/>
    </tripinfo>
    <tripinfo id="flow_z3.7" depart="13.00" departLane="-E28_1" departPos="5.10" departSpeed="3.08" departDelay="7.17" arrival="186.00" arrivalLane="-E29_0" arrivalPos="266.06" arrivalSpeed="11.25" duration="173.00" routeLength="1186.43" waitingTime="61.00" waitingCount="1" stopTime="0.00" timeLoss="75.97" rerouteNo="0" devices="tripinfo_flow_z3.7 emissions_flow_z3.7" vType="Car" speedFactor="0.90" vaporized="">
        <emissions CO_abs="1143.50" CO2_abs="339155.92" HC_abs="7.64" PMx_abs="25.80" NOx_abs="121.66" fuel_abs="109950.77" electricity_abs="0.00"/>
    </tripinfo>
    <tripinfo id="flow_z2.1" depart="1.00" departLane="-E18_0" departPos="5.10" departSpeed="9.58" departDelay="0.17" arrival="191.00" arrivalLane="-E15_0" arrivalPos="479.20" arrivalSpeed="14.56" duration="190.00" routeLength="1988.38" waitingTime="36.00" waitingCount="1" stopTime="0.00" timeLoss="53.55" rerouteNo="0" devices="tripinfo_flow_z2.1 emissions_flow_z2.1" vType="Car" speedFactor="1.06" vaporized="">
        <emissions CO_abs="2401.10" CO2_abs="433877.64" HC_abs="16.08" PMx_abs="44.13" NOx_abs="156.29" fuel_abs="140657.90" electricity_abs="0.00"/>
    </tripinfo>
    <tripinfo id="18" depart="36.00" departLane="E32_0" departPos="5.10" departSpeed="0.00" departDelay="0.00" arrival="194.00" arrivalLane="E17_0" arrivalPos="465.43" arrivalSpeed="12.15" duration="158.00" routeLength="1839.24" waitingTime="0.00" waitingCount="0" stopTime="0.00" timeLoss="16.71" rerouteNo="0" devices="tripinfo_18 emissions_18" vType="Car" speedFactor="0.96" vaporized="">
        <emissions CO_abs="2054.07" CO2_abs="375388.81" HC_abs="13.72" PMx_abs="40.18" NOx_abs="129.52" fuel_abs="121696.16" electricity_abs="0.00"/>
    </tripinfo>
    <tripinfo id="flow_z2.0" depart="0.00" departLane="-E18_0" departPos="5.10" departSpeed="12.79" departDelay="0.00" arrival="196.00" arrivalLane="-E15_0" arrivalPos="479.20" arrivalSpeed="12.69" duration="196.00" routeLength="1988.38" waitingTime="20.00" waitingCount="1" stopTime="0.00" timeLoss="39.09" rerouteNo="0" devices="tripinfo_flow_z2.0 emissions_flow_z2.0" vType="Car" speedFactor="0.92" vaporized="">
        <emissions CO_abs="1915.52" CO2_abs="404402.53" HC_abs="12.80" PMx_abs="40.94" NOx_abs="142.11" fuel_abs="131102.47" electricity_abs="0.00"/>
    </tripinfo>
    <tripinfo id="flow_z2.2" depart="2.00" departLane="-E18_0" departPos="5.10" departSpeed="5.27" departDelay="0.33" arrival="197.00" arrivalLane="-E15_1" arrivalPos="479.20" arrivalSpeed="13.44" duration="195.00" routeLength="1988.38" waitingTime="2.00" waitingCount="1" stopTime="0.00" timeLoss="51.37" rerouteNo="0" devices="tripinfo_flow_z2.2 emissions_flow_z2.2" vType="Car" speedFactor="1.01" vaporized="">
        <emissions CO_abs="2202.40" CO2_abs="438616.23" HC_abs="14.68" PMx_abs="42.10" NOx_abs="150.66" fuel_abs="142193.49" electricity_abs="0.00"/>
    </tripinfo>
    <tripinfo id="flow_z3.11" depart="23.00" departLane="-E28_1" departPos="5.10" departSpeed="5.86" departDelay="13.84" arrival="198.00" arrivalLane="-E29_1" arrivalPos="266.06" arrivalSpeed="13.42" duration="175.00" routeLength="1186.43" waitingTime="49.00" waitingCount="1" stopTime="0.00" timeLoss="92.70" rerouteNo="0" devices="tripinfo_flow_z3.11 emissions_flow_z3.11" vType="Car" speedFactor="1.06" vaporized="">
        <emissions CO_abs="1458.23" CO2_abs="360814.20" HC_abs="9.70" PMx_abs="24.10" NOx_abs="125.76" fuel_abs="116971.45" electricity_abs="0.00"/>
    </tripinfo>
    <tripinfo id="flow_z2.4" depart="6.00" departLane="-E18_0" departPos="5.10" departSpeed="5.64" departDelay="2.67" arrival="199.00" arrivalLane="-E15_1" arrivalPos="479.20" arrivalSpeed="14.58" duration="193.00" routeLength="1988.38" waitingTime="4.00" waitingCount="2" stopTime="0.00" timeLoss="55.46" rerouteNo="0" devices="tripinfo_flow_z2.4 emissions_flow_z2.4" vType="Car" speedFactor="1.05" vaporized="">
        <emissions CO_abs="2453.85" CO2_abs="444970.11" HC_abs="16.33" PMx_abs="40.31" NOx_abs="151.99" fuel_abs="144253.19" electricity_abs="0.00"/>
    </tripinfo>
    <tripinfo id="54" depart="108.00" departLane="-E6_0" departPos="5.10" departSpeed="0.00" departDelay="0.00" arrival="200.00" arrivalLane="E6_1" arrivalPos="466.06" arrivalSpeed="8.21" duration="92.00" routeLength="1043.03" waitingTime="0.00" waitingCount="0" stopTime="0.00" timeLoss="13.57" rerouteNo="0" devices="tripinfo_54 emissions_54" vType="Car" speedFactor="0.98" vaporized="">
        <emissions CO_abs="1257.60" CO2_abs="227172.40" HC_abs="8.38" PMx_abs="21.88" NOx_abs="77.48" fuel_abs="73646.18" electricity_abs="0.00"/>
    </tripinfo>
    <tripinfo id="3" depart="6.00" departLane="E37_0" departPos="5.10" departSpeed="0.00" departDelay="0.00" arrival="202.00" arrivalLane="-E14_1" arrivalPos="279.20" arrivalSpeed="13.74" duration="196.00" routeLength="1837.99" waitingTime="47.00" waitingCount="1" stopTime="0.00" timeLoss="67.78" rerouteNo="0" devices="tripinfo_3 emissions_3" vType="Car" speedFactor="1.06" vaporized="">
        <emissions CO_abs="2375.43" CO2_abs="457802.87" HC_abs="15.88" PMx_abs="41.43" NOx_abs="163.49" fuel_abs="148414.03" electricity_abs="0.00"/>
    </tripinfo>
    <tripinfo id="flow_z2.6" depart="10.00" departLane="-E18_0" departPos="5.10" departSpeed="6.09" departDelay="5.00" arrival="202.00" arrivalLane="-E15_0" arrivalPos="479.20" arrivalSpeed="12.88" duration="192.00" routeLength="1988.38" waitingTime="1.00" waitingCount="1" stopTime="0.00" timeLoss="43.28" rerouteNo="0" devices="tripinfo_flow_z2.6 emissions_flow_z2.6" vType="Car" speedFactor="0.97" vaporized="">
        <emissions CO_abs="2005.65" CO2_abs="405694.35" HC_abs="13.39" PMx_abs="40.56" NOx_abs="139.64" fuel_abs="131520.82" electricity_abs="0.00"/>
    </tripinfo>
    <tripinfo id="flow_z3.14" depart="29.00" departLane="-E28_1" departPos="5.10" departSpeed="8.13" departDelay="17.34" arrival="202.00" arrivalLane="-E29_1" arrivalPos="266.06" arrivalSpeed="12.86" duration="173.00" routeLength="1186.43" waitingTime="43.00" waitingCount="1" stopTime="0.00" timeLoss="79.04" rerouteNo="0" devices="tripinfo_flow_z3.14 emissions_flow_z3.14" vType="Car" speedFactor="0.93" vaporized="">
        <emissions CO_abs="1383.52" CO2_abs="353459.33" HC_abs="9.19" PMx_abs="24.09" NOx_abs="122.86" fuel_abs="114587.14" electricity_abs="0.00"/>
    </tripinfo>
    <tripinfo id="flow_z3.18" depart="38.00" departLane="-E28_1" departPos="5.10" departSpeed="4.76" departDelay="23.01" arrival="204.00" arrivalLane="-E29_1" arrivalPos="266.06" arrivalSpeed="14.18" duration="166.00" routeLength="1186.43" waitingTime="38.00" waitingCount="2" stopTime="0.00" timeLoss="82.22" rerouteNo="0" devices="tripinfo_flow_z3.18 emissions_flow_z3.18" vType="Car" speedFactor="1.04" vaporized="">
        <emissions CO_abs="1802.81" CO2_abs="388701.66" HC_abs="11.96" PMx_abs="25.08" NOx_abs="133.62" fuel_abs="126011.82" electricity_abs="0.00"/>
    </tripinfo>
    <tripinfo id="flow_z3.13" depart="27.00" departLane="-E28_1" departPos="5.10" departSpeed="6.97" departDelay="16.17" arrival="205.00" arrivalLane="-E29_0" arrivalPos="266.06" arrivalSpeed="8.33" duration="178.00" routeLength="1186.43" waitingTime="50.00" waitingCount="1" stopTime="0.00" timeLoss="80.94" rerouteNo="0" devices="tripinfo_flow_z3.13 emissions_flow_z3.13" vType="Car" speedFactor="0.90" vaporized="">
        <emissions CO_abs="873.77" CO2_abs="335772.83" HC_abs="5.85" PMx_abs="27.90" NOx_abs="122.46" fuel_abs="108854.32" electricity_abs="0.00"/>
    </tripinfo>
    <tripinfo id="flow_z2.8" depart="14.00" departLane="-E18_0" departPos="5.10" departSpeed="5.60" departDelay="7.34" arrival="206.00" arrivalLane="-E15_1" arrivalPos="479.20" arrivalSpeed="13.51" duration="192.00" routeLength="1984.04" waitingTime="1.00" waitingCount="1" stopTime="0.00" timeLoss="48.67" rerouteNo="0" devices="tripinfo_flow_z2.8 emissions_flow_z2.8" vType="Car" speedFactor="1.01" vaporized="">
        <emissions CO_abs="2382.66" CO2_abs="445597.94" HC_abs="15.88" PMx_abs="41.75" NOx_abs="151.42" fuel_abs="144456.64" electricity_abs="0.00"/>
    </tripinfo>
    <tripinfo id="flow_z2.7" depart="12.00" departLane="-E18_0" departPos="5.10" departSpeed="5.93" departDelay="6.17" arrival="207.00" arrivalLane="-E15_0" arrivalPos="479.20" arrivalSpeed="12.91" duration="195.00" routeLength="1984.04" waitingTime="0.00" waitingCount="0" stopTime="0.00" timeLoss="39.51" rerouteNo="0" devices="tripinfo_flow_z2.7 emissions_flow_z2.7" vType="Car" speedFactor="0.93" vaporized="">
        <emissions CO_abs="2007.44" CO2_abs="410445.40" HC_abs="13.38" PMx_abs="39.04" NOx_abs="139.85" fuel_abs="133060.93" electricity_abs="0.00"/>
    </tripinfo>
    <tripinfo id="flow_z2.9" depart="16.00" departLane="-E18_0" departPos="5.10" departSpeed="3.89" departDelay="8.50" arrival="209.00" arrivalLane="-E15_1" arrivalPos="479.20" arrivalSpeed="14.74" duration="193.00" routeLength="1984.04" waitingTime="3.00" waitingCount="1" stopTime="0.00" timeLoss="58.00" rerouteNo="0" devices="tripinfo_flow_z2.9 emissions_flow_z2.9" vType="Car" speedFactor="1.08" vaporized="">
        <emissions CO_abs="2617.47" CO2_abs="455902.56" HC_abs="17.43" PMx_abs="39.59" NOx_abs="154.66" fuel_abs="147797.02" electricity_abs="0.00"/>
    </tripinfo>
    <tripinfo id="flow_z2.10" depart="18.00" departLane="-E18_0" departPos="5.10" departSpeed="2.16" departDelay="9.67" arrival="209.00" arrivalLane="-E15_0" arrivalPos="479.20" arrivalSpeed="12.76" duration="191.00" routeLength="1988.38" waitingTime="0.00" waitingCount="0" stopTime="0.00" timeLoss="41.43" rerouteNo="0" devices="tripinfo_flow_z2.10 emissions_flow_z2.10" vType="Car" speedFactor="0.97" vaporized="">
        <emissions CO_abs="2107.82" CO2_abs="415567.34" HC_abs="14.05" PMx_abs="39.27" NOx_abs="141.50" fuel_abs="134721.30" electricity_abs="0.00"/>
    </tripinfo>
    <tripinfo id="flow_z3.17" depart="35.00" departLane="-E28_1" departPos="5.10" departSpeed="2.58" departDelay="20.84" arrival="209.00" arrivalLane="-E29_1" arrivalPos="266.06" arrivalSpeed="12.30" duration="174.00" routeLength="1186.43" waitingTime="46.00" waitingCount="2" stopTime="0.00" timeLoss="83.05" rerouteNo="0" devices="tripinfo_flow_z3.17 emissions_flow_z3.17" vType="Car" speedFactor="0.96" vaporized="">
        <emissions CO_abs="1369.11" CO2_abs="366216.25" HC_abs="9.10" PMx_abs="24.59" NOx_abs="127.01" fuel_abs="118722.68" electricity_abs="0.00"/>
    </tripinfo>
    <tripinfo id="68" depart="136.00" departLane="-E13_0" departPos="5.10" departSpeed="0.00" departDelay="0.00" arrival="210.00" arrivalLane="E27_1" arrivalPos="279.20" arrivalSpeed="14.30" duration="74.00" routeLength="772.65" waitingTime="8.00" waitingCount="1" stopTime="0.00" timeLoss="20.18" rerouteNo="0" devices="tripinfo_68 emissions_68" vType="Car" speedFactor="1.05" vaporized="">
        <emissions CO_abs="1104.19" CO2_abs="193973.04" HC_abs="7.36" PMx_abs="16.99" NOx_abs="67.18" fuel_abs="62883.38" electricity_abs="0.00"/>
    </tripinfo>
    <tripinfo id="flow_z2.11" depart="21.00" departLane="-E18_0" departPos="5.10" departSpeed="3.83" departDelay="11.84" arrival="210.00" arrivalLane="-E15_1" arrivalPos="479.20" arrivalSpeed="14.05" duration="189.00" routeLength="1984.04" waitingTime="2.00" waitingCount="1" stopTime="0.00" timeLoss="58.45" rerouteNo="0" devices="tripinfo_flow_z2.11 emissions_flow_z2.11" vType="Car" speedFactor="1.10" vaporized="">
        <emissions CO_abs="2782.32" CO2_abs="464885.31" HC_abs="18.53" PMx_abs="41.63" NOx_abs="159.14" fuel_abs="150709.16" electricity_abs="0.00"/>
    </tripinfo>
    <tripinfo id="flow_z3.10" depart="21.00" departLane="-E28_1" departPos="5.10" departSpeed="6.01" departDelay="12.67" arrival="211.00" arrivalLane="-E29_1" arrivalPos="266.06" arrivalSpeed="12.92" duration="190.00" routeLength="1186.43" waitingTime="54.00" waitingCount="1" stopTime="0.00" timeLoss="104.17" rerouteNo="0" devices="tripinfo_flow_z3.10 emissions_flow_z3.10" vType="Car" speedFactor="1.02" vaporized="">
        <emissions CO_abs="1455.75" CO2_abs="391781.51" HC_abs="9.66" PMx_abs="24.16" NOx_abs="135.46" fuel_abs="127010.70" electricity_abs="0.00"/>
    </tripinfo>
    <tripinfo id="41" depart="82.00" departLane="E14_0" departPos="5.10" departSpeed="0.00" departDelay="0.00" arrival="216.00" arrivalLane="E37_0" arrivalPos="266.06" arrivalSpeed="13.25" duration="134.00" routeLength="1537.42" waitingTime="3.00" waitingCount="1" stopTime="0.00" timeLoss="24.02" rerouteNo="0" devices="tripinfo_41 emissions_41" vType="Car" speedFactor="1.03" vaporized="">
        <emissions CO_abs="2001.38" CO2_abs="343160.17" HC_abs="13.36" PMx_abs="34.20" NOx_abs="117.78" fuel_abs="111247.74" electricity_abs="0.00"/>
    </tripinfo>
    <tripinfo id="flow_z3.9" depart="19.00" departLane="-E28_1" departPos="5.10" departSpeed="5.82" departDelay="11.50" arrival="217.00" arrivalLane="-E29_0" arrivalPos="266.06" arrivalSpeed="8.33" duration="198.00" routeLength="1186.43" waitingTime="55.00" waitingCount="2" stopTime="0.00" timeLoss="125.99" rerouteNo="0" devices="tripinfo_flow_z3.9 emissions_flow_z3.9" vType="Car" speedFactor="1.21" vaporized="">
        <emissions CO_abs="839.61" CO2_abs="371438.97" HC_abs="5.62" PMx_abs="28.80" NOx_abs="133.82" fuel_abs="120416.88" electricity_abs="0.00"/>
    </tripinfo>
    <tripinfo id="flow_z3.23" depart="48.00" departLane="-E28_1" departPos="5.10" departSpeed="5.07" departDelay="28.84" arrival="217.00" arrivalLane="-E29_1" arrivalPos="266.06" arrivalSpeed="14.21" duration="169.00" routeLength="1186.43" waitingTime="32.00" waitingCount="1" stopTime="0.00" timeLoss="84.66" rerouteNo="0" devices="tripinfo_flow_z3.23 emissions_flow_z3.23" vType="Car" speedFactor="1.03" vaporized="">
        <emissions CO_abs="1489.21" CO2_abs="358404.44" HC_abs="9.88" PMx_abs="23.71" NOx_abs="121.72" fuel_abs="116189.92" electricity_abs="0.00"/>
    </tripinfo>
    <tripinfo id="42" depart="84.00" departLane="-E37_0" departPos="5.10" departSpeed="0.00" departDelay="0.00" arrival="222.00" arrivalLane="-E24_0" arrivalPos="283.20" arrivalSpeed="13.28" duration="138.00" routeLength="1551.74" waitingTime="8.00" waitingCount="1" stopTime="0.00" timeLoss="28.71" rerouteNo="0" devices="tripinfo_42 emissions_42" vType="Car" speedFactor="1.04" vaporized="">
        <emissions CO_abs="1987.17" CO2_abs="342188.70" HC_abs="13.25" PMx_abs="33.34" NOx_abs="118.93" fuel_abs="110932.90" electricity_abs="0.00"/>
    </tripinfo>
    <tripinfo id="flow_z1.7" depart="11.00" departLane="-E1_0" departPos="5.10" departSpeed="6.50" departDelay="5.17" arrival="224.00" arrivalLane="E19_0" arrivalPos="283.20" arrivalSpeed="14.18" duration="213.00" routeLength="2181.19" waitingTime="33.00" waitingCount="1" stopTime="0.00" timeLoss="66.98" rerouteNo="0" devices="tripinfo_flow_z1.7 emissions_flow_z1.7" vType="Car" speedFactor="1.08" vaporized="">
        <emissions CO_abs="2760.92" CO2_abs="490714.07" HC_abs="18.43" PMx_abs="46.50" NOx_abs="174.74" fuel_abs="159083.40" electricity_abs="0.00"/>
    </tripinfo>