<?xml version="1.0" encoding="UTF-8"?>

<!-- generated on 2026-05-30T15:32:18.400700+00:00 by Eclipse SUMO GUI 1.26.0
<sumoConfiguration xmlns:xsi="http://www.w3.org/2001/XMLSchema-instance" xsi:noNamespaceSchemaLocation="http://sumo.dlr.de/xsd/sumoConfiguration.xsd">

    <input>
        <net-file value="manhattan.net.xml"/>
        <route-files value="routes.rou.xml, background.rou.xml"/>
        <additional-files value="mosaic_types.add.xml,simulation.add.xml"/>
    </input>

    <output>
        <netstate-dump value="/home/netsim/tpnpr/netstate.xml"/>
        <tripinfo-output value="/home/netsim/tpnpr/tripinfo.xml"/>
    </output>

    <time>
        <begin value="0"/>
        <end value="1000"/>
        <step-length value="1.00"/>
    </time>

    <processing>
        <ignore-route-errors value="false"/>
        <collision.action value="warn"/>
        <collision.check-junctions value="true"/>
        <time-to-teleport value="0"/>
    </processing>

    <report>
        <verbose value="true"/>
        <no-step-log value="true"/>
    </report>

    <emissions>
        <device.emissions.probability value="1.0"/>
    </emissions>

    <traci_server>
        <remote-port value="46725"/>
    </traci_server>

    <random_number>
        <seed value="100000"/>
    </random_number>

</sumoConfiguration>
-->

<tripinfos xmlns:xsi="http://www.w3.org/2001/XMLSchema-instance" xsi:noNamespaceSchemaLocation="http://sumo.dlr.de/xsd/tripinfo_file.xsd">
    <tripinfo id="13" depart="26.00" departLane="-E15_0" departPos="5.10" departSpeed="0.00" departDelay="0.00" arrival="70.00" arrivalLane="-E15_0" arrivalPos="479.20" arrivalSpeed="11.45" duration="44.00" routeLength="474.10" waitingTime="0.00" waitingCount="0" stopTime="0.00" timeLoss="5.02" rerouteNo="0" devices="tripinfo_13 emissions_13" vType="Car" speedFactor="0.88" vaporized="">
        <emissions CO_abs="438.37" CO2_abs="93609.03" HC_abs="2.92" PMx_abs="8.86" NOx_abs="31.35" fuel_abs="30346.75" electricity_abs="0.00"/>
    </tripinfo>
    <tripinfo id="flow_z3.1" depart="6.00" departLane="-E28_1" departPos="5.10" departSpeed="16.11" departDelay="0.00" arrival="87.00" arrivalLane="-E29_0" arrivalPos="266.06" arrivalSpeed="15.56" duration="81.00" routeLength="1186.43" waitingTime="0.00" waitingCount="0" stopTime="0.00" timeLoss="5.66" rerouteNo="0" devices="tripinfo_flow_z3.1 emissions_flow_z3.1" vType="Car" speedFactor="1.16" vaporized="">
        <emissions CO_abs="1468.81" CO2_abs="198800.64" HC_abs="9.86" PMx_abs="26.59" NOx_abs="72.53" fuel_abs="64448.68" electricity_abs="0.00"/>
    </tripinfo>
    <tripinfo id="22" depart="44.00" departLane="-E14_0" departPos="5.10" departSpeed="0.00" departDelay="0.00" arrival="98.00" arrivalLane="-E25_0" arrivalPos="279.20" arrivalSpeed="10.71" duration="54.00" routeLength="574.10" waitingTime="0.00" waitingCount="0" stopTime="0.00" timeLoss="5.58" rerouteNo="0" devices="tripinfo_22 emissions_22" vType="Car" speedFactor="0.85" vaporized="">
        <emissions CO_abs="450.29" CO2_abs="110333.76" HC_abs="3.01" PMx_abs="11.75" NOx_abs="37.47" fuel_abs="35768.80" electricity_abs="0.00"/>
    </tripinfo>
    <tripinfo id="flow_z3.0" depart="0.00" departLane="-E28_1" departPos="5.10" departSpeed="12.68" departDelay="0.00" arrival="104.00" arrivalLane="-E29_0" arrivalPos="266.06" arrivalSpeed="12.01" duration="104.00" routeLength="1186.43" waitingTime="0.00" waitingCount="0" stopTime="0.00" timeLoss="8.13" rerouteNo="0" devices="tripinfo_flow_z3.0 emissions_flow_z3.0" vType="Car" speedFactor="0.91" vaporized="">
        <emissions CO_abs="1001.65" CO2_abs="197796.31" HC_abs="6.70" PMx_abs="22.77" NOx_abs="69.43" fuel_abs="64123.21" electricity_abs="0.00"/>
    </tripinfo>
    <tripinfo id="flow_z3.2" depart="12.00" departLane="-E28_1" departPos="5.10" departSpeed="13.74" departDelay="0.00" arrival="108.00" arrivalLane="-E29_0" arrivalPos="266.06" arrivalSpeed="12.67" duration="96.00" routeLength="1186.43" waitingTime="0.00" waitingCount="0" stopTime="0.00" timeLoss="7.57" rerouteNo="0" devices="tripinfo_flow_z3.2 emissions_flow_z3.2" vType="Car" speedFactor="0.99" vaporized="">
        <emissions CO_abs="1094.09" CO2_abs="196079.13" HC_abs="7.34" PMx_abs="24.87" NOx_abs="69.91" fuel_abs="63566.56" electricity_abs="0.00"/>
    </tripinfo>
    <tripinfo id="12" depart="24.00" departLane="E6_0" departPos="5.10" departSpeed="0.00" departDelay="0.00" arrival="128.00" arrivalLane="-E32_0" arrivalPos="266.06" arrivalSpeed="12.53" duration="104.00" routeLength="1239.52" waitingTime="0.00" waitingCount="0" stopTime="0.00" timeLoss="10.89" rerouteNo="0" devices="tripinfo_12 emissions_12" vType="Car" speedFactor="0.97" vaporized="">
        <emissions CO_abs="1229.08" CO2_abs="227987.59" HC_abs="8.22" PMx_abs="25.50" NOx_abs="79.47" fuel_abs="73910.68" electricity_abs="0.00"/>
    </tripinfo>
    <tripinfo id="21" depart="42.00" departLane="-E25_0" departPos="5.10" departSpeed="0.00" departDelay="0.00" arrival="132.00" arrivalLane="-E3_0" arrivalPos="483.20" arrivalSpeed="12.73" duration="90.00" routeLength="1079.36" waitingTime="0.00" waitingCount="0" stopTime="0.00" timeLoss="7.84" rerouteNo="0" devices="tripinfo_21 emissions_21" vType="Car" speedFactor="0.96" vaporized="">
        <emissions CO_abs="1058.13" CO2_abs="195625.13" HC_abs="7.08" PMx_abs="22.25" NOx_abs="68.08" fuel_abs="63419.17" electricity_abs="0.00"/>
    </tripinfo>
    <tripinfo id="30" depart="60.00" departLane="E9_0" departPos="5.10" departSpeed="0.00" departDelay="0.00" arrival="133.00" arrivalLane="E19_0" arrivalPos="283.20" arrivalSpeed="14.72" duration="73.00" routeLength="878.10" waitingTime="4.00" waitingCount="1" stopTime="0.00" timeLoss="17.25" rerouteNo="0" devices="tripinfo_30 emissions_30" vType="Car" speedFactor="1.13" vaporized="">
        <emissions CO_abs="1303.95" CO2_abs="206350.43" HC_abs="8.72" PMx_abs="20.84" NOx_abs="71.74" fuel_abs="66895.90" electricity_abs="0.00"/>
    </tripinfo>
    <tripinfo id="4" depart="8.00" departLane="-E39_0" departPos="5.10" departSpeed="0.00" departDelay="0.00" arrival="146.00" arrivalLane="-E10_0" arrivalPos="479.20" arrivalSpeed="11.76" duration="138.00" routeLength="1552.66" waitingTime="0.00" waitingCount="0" stopTime="0.00" timeLoss="13.04" rerouteNo="0" devices="tripinfo_4 emissions_4" vType="Car" speedFactor="0.90" vaporized="">
        <emissions CO_abs="1402.68" CO2_abs="293846.91" HC_abs="9.38" PMx_abs="32.94" NOx_abs="101.68" fuel_abs="95261.55" electricity_abs="0.00"/>
    </tripinfo>
    <tripinfo id="1" depart="2.00" departLane="-E29_0" departPos="5.10" departSpeed="0.00" departDelay="0.00" arrival="153.00" arrivalLane="-E24_0" arrivalPos="283.20" arrivalSpeed="14.02" duration="151.00" routeLength="1942.97" waitingTime="0.00" waitingCount="0" stopTime="0.00" timeLoss="15.29" rerouteNo="0" devices="tripinfo_1 emissions_1" vType="Car" speedFactor="1.04" vaporized="">
        <emissions CO_abs="2227.63" CO2_abs="365231.72" HC_abs="14.93" PMx_abs="42.78" NOx_abs="128.44" fuel_abs="118403.40" electricity_abs="0.00"/>
    </tripinfo>
    <tripinfo id="48" depart="96.00" departLane="E9_0" departPos="5.10" departSpeed="0.00" departDelay="0.00" arrival="158.00" arrivalLane="E10_0" arrivalPos="479.20" arrivalSpeed="13.72" duration="62.00" routeLength="772.65" waitingTime="0.00" waitingCount="0" stopTime="0.00" timeLoss="7.42" rerouteNo="0" devices="tripinfo_48 emissions_48" vType="Car" speedFactor="1.03" vaporized="">
        <emissions CO_abs="1080.04" CO2_abs="170932.63" HC_abs="7.20" PMx_abs="16.53" NOx_abs="58.50" fuel_abs="55413.89" electricity_abs="0.00"/>
    </tripinfo>
    <tripinfo id="0" depart="0.00" departLane="E19_0" departPos="5.10" departSpeed="0.00" departDelay="0.00" arrival="161.00" arrivalLane="-E10_0" arrivalPos="479.20" arrivalSpeed="13.49" duration="161.00" routeLength="1889.99" waitingTime="2.00" waitingCount="1" stopTime="0.00" timeLoss="20.00" rerouteNo="0" devices="tripinfo_0 emissions_0" vType="Car" speedFactor="0.99" vaporized="">
        <emissions CO_abs="2220.92" CO2_abs="394700.36" HC_abs="14.83" PMx_abs="40.99" NOx_abs="136.34" fuel_abs="127956.55" electricity_abs="0.00"/>
    </tripinfo>
    <tripinfo id="23" depart="46.00" departLane="-E16_0" departPos="5.10" departSpeed="0.00" departDelay="0.00" arrival="162.00" arrivalLane="-E29_0" arrivalPos="266.06" arrivalSpeed="13.76" duration="116.00" routeLength="1384.98" waitingTime="1.00" waitingCount="1" stopTime="0.00" timeLoss="17.93" rerouteNo="0" devices="tripinfo_23 emissions_23" vType="Car" speedFactor="1.05" vaporized="">
        <emissions CO_abs="1791.01" CO2_abs="296062.87" HC_abs="11.96" PMx_abs="30.26" NOx_abs="102.65" fuel_abs="95979.54" electricity_abs="0.00"/>
    </tripinfo>
    <tripinfo id="24" depart="48.00" departLane="E18_0" departPos="5.10" departSpeed="0.00" departDelay="0.00" arrival="165.00" arrivalLane="-E35_1" arrivalPos="266.06" arrivalSpeed="13.95" duration="117.00" routeLength="1550.18" waitingTime="0.00" waitingCount="0" stopTime="0.00" timeLoss="13.00" rerouteNo="0" devices="tripinfo_24 emissions_24" vType="Car" speedFactor="1.10" vaporized="">
        <emissions CO_abs="2209.78" CO2_abs="320397.86" HC_abs="14.77" PMx_abs="33.86" NOx_abs="112.54" fuel_abs="103868.52" electricity_abs="0.00"/>
    </tripinfo>
    <tripinfo id="flow_z1.0" depart="0.00" departLane="-E1_0" departPos="5.10" departSpeed="13.81" departDelay="0.00" arrival="168.00" arrivalLane="E19_0" arrivalPos="283.20" arrivalSpeed="13.47" duration="168.00" routeLength="2181.19" waitingTime="0.00" waitingCount="0" stopTime="0.00" timeLoss="8.90" rerouteNo="0" devices="tripinfo_flow_z1.0 emissions_flow_z1.0" vType="Car" speedFactor="0.99" vaporized="">
        <emissions CO_abs="1996.48" CO2_abs="346359.61" HC_abs="13.42" PMx_abs="46.53" NOx_abs="125.03" fuel_abs="112285.85" electricity_abs="0.00"/>
    </tripinfo>
    <tripinfo id="39" depart="80.00" departLane="-E28_0" departPos="5.10" departSpeed="0.00" departDelay="2.00" arrival="168.00" arrivalLane="-E26_1" arrivalPos="265.43" arrivalSpeed="9.19" duration="88.00" routeLength="860.33" waitingTime="6.00" waitingCount="1" stopTime="0.00" timeLoss="39.13" rerouteNo="0" devices="tripinfo_39 emissions_39" vType="Car" speedFactor="1.27" vaporized="">
        <emissions CO_abs="1654.22" CO2_abs="263981.18" HC_abs="10.97" PMx_abs="19.23" NOx_abs="90.05" fuel_abs="85578.73" electricity_abs="0.00"/>
    </tripinfo>
    <tripinfo id="flow_z1.2" depart="12.00" departLane="-E1_0" departPos="5.10" departSpeed="15.85" departDelay="0.00" arrival="169.00" arrivalLane="E19_1" arrivalPos="283.20" arrivalSpeed="14.76" duration="157.00" routeLength="2181.19" waitingTime="0.00" waitingCount="0" stopTime="0.00" timeLoss="18.33" rerouteNo="0" devices="tripinfo_flow_z1.2 emissions_flow_z1.2" vType="Car" speedFactor="1.14" vaporized="">
        <emissions CO_abs="2392.35" CO2_abs="349318.44" HC_abs="16.07" PMx_abs="46.29" NOx_abs="127.05" fuel_abs="113244.79" electricity_abs="0.00"/>
    </tripinfo>
    <tripinfo id="16" depart="32.00" departLane="E10_0" departPos="5.10" departSpeed="0.00" departDelay="0.00" arrival="178.00" arrivalLane="E7_0" arrivalPos="466.06" arrivalSpeed="14.47" duration="146.00" routeLength="1801.77" waitingTime="1.00" waitingCount="1" stopTime="0.00" timeLoss="20.55" rerouteNo="0" devices="tripinfo_16 emissions_16" vType="Car" speedFactor="1.06" vaporized="">
        <emissions CO_abs="2410.00" CO2_abs="377355.02" HC_abs="16.10" PMx_abs="38.78" NOx_abs="131.39" fuel_abs="122333.28" electricity_abs="0.00"/>
    </tripinfo>
    <tripinfo id="flow_z3.3" depart="18.00" departLane="-E28_1" departPos="5.10" departSpeed="13.81" departDelay="0.00" arrival="178.00" arrivalLane="-E29_0" arrivalPos="266.06" arrivalSpeed="13.06" duration="160.00" routeLength="1186.43" waitingTime="59.00" waitingCount="1" stopTime="0.00" timeLoss="71.68" rerouteNo="0" devices="tripinfo_flow_z3.3 emissions_flow_z3.3" vType="Car" speedFactor="0.99" vaporized="">
        <emissions CO_abs="1287.73" CO2_abs="319728.22" HC_abs="8.62" PMx_abs="25.64" NOx_abs="116.10" fuel_abs="103652.44" electricity_abs="0.00"/>
    </tripinfo>
    <tripinfo id="flow_z3.6" depart="36.00" departLane="-E28_1" departPos="5.10" departSpeed="15.30" departDelay="0.00" arrival="178.00" arrivalLane="-E29_1" arrivalPos="266.06" arrivalSpeed="14.26" duration="142.00" routeLength="1186.43" waitingTime="43.00" waitingCount="2" stopTime="0.00" timeLoss="62.52" rerouteNo="0" devices="tripinfo_flow_z3.6 emissions_flow_z3.6" vType="Car" speedFactor="1.10" vaporized="">
        <emissions CO_abs="1536.74" CO2_abs="309266.51" HC_abs="10.26" PMx_abs="24.57" NOx_abs="111.95" fuel_abs="100260.42" electricity_abs="0.00"/>
    </tripinfo>
    <tripinfo id="flow_z3.4" depart="24.00" departLane="-E28_1" departPos="5.10" departSpeed="13.99" departDelay="0.00" arrival="182.00" arrivalLane="-E29_0" arrivalPos="266.06" arrivalSpeed="13.07" duration="158.00" routeLength="1186.43" waitingTime="54.00" waitingCount="1" stopTime="0.00" timeLoss="71.15" rerouteNo="0" devices="tripinfo_flow_z3.4 emissions_flow_z3.4" vType="Car" speedFactor="1.01" vaporized="">
        <emissions CO_abs="1457.49" CO2_abs="332111.15" HC_abs="9.72" PMx_abs="24.83" NOx_abs="119.75" fuel_abs="107666.67" electricity_abs="0.00"/>
    </tripinfo>
    <tripinfo id="flow_z3.5" depart="30.00" departLane="-E28_1" departPos="5.10" departSpeed="14.75" departDelay="0.00" arrival="183.00" arrivalLane="-E29_0" arrivalPos="266.06" arrivalSpeed="14.10" duration="153.00" routeLength="1186.43" waitingTime="50.00" waitingCount="1" stopTime="0.00" timeLoss="70.84" rerouteNo="0" devices="tripinfo_flow_z3.5 emissions_flow_z3.5" vType="Car" speedFactor="1.06" vaporized="">
        <emissions CO_abs="1569.06" CO2_abs="331402.12" HC_abs="10.46" PMx_abs="25.04" NOx_abs="119.07" fuel_abs="107436.66" electricity_abs="0.00"/>
    </tripinfo>
    <tripinfo id="7" depart="14.00" departLane="E19_0" departPos="5.10" departSpeed="0.00" departDelay="0.00" arrival="187.00" arrivalLane="E11_0" arrivalPos="466.06" arrivalSpeed="12.13" duration="173.00" routeLength="1864.55" waitingTime="4.00" waitingCount="1" stopTime="0.00" timeLoss="24.54" rerouteNo="0" devices="tripinfo_7 emissions_7" vType="Car" speedFactor="0.93" vaporized="">
        <emissions CO_abs="1854.21" CO2_abs="391747.69" HC_abs="12.40" PMx_abs="41.50" NOx_abs="134.76" fuel_abs="126999.68" electricity_abs="0.00"/>
    </tripinfo>
    <tripinfo id="11" depart="22.00" departLane="-E33_0" departPos="5.10" departSpeed="0.00" departDelay="0.00" arrival="188.00" arrivalLane="-E2_0" arrivalPos="479.20" arrivalSpeed="13.08" duration="166.00" routeLength="2093.43" waitingTime="0.00" waitingCount="0" stopTime="0.00" timeLoss="16.32" rerouteNo="0" devices="tripinfo_11 emissions_11" vType="Car" speedFactor="1.03" vaporized="">
        <emissions CO_abs="2418.24" CO2_abs="392038.32" HC_abs="16.17" PMx_abs="43.64" NOx_abs="137.64" fuel_abs="127093.69" electricity_abs="0.00"/>
    </tripinfo>
    <tripinfo id="flow_z3.7" depart="42.00" departLane="-E28_1" departPos="5.10" departSpeed="12.49" departDelay="0.00" arrival="190.00" arrivalLane="-E29_0" arrivalPos="266.06" arrivalSpeed="12.07" duration="148.00" routeLength="1186.43" waitingTime="37.00" waitingCount="1" stopTime="0.00" timeLoss="50.95" rerouteNo="0" devices="tripinfo_flow_z3.7 emissions_flow_z3.7" vType="Car" speedFactor="0.90" vaporized="">
        <emissions CO_abs="1184.90" CO2_abs="299679.01" HC_abs="7.91" PMx_abs="25.09" NOx_abs="106.74" fuel_abs="97152.51" electricity_abs="0.00"/>
    </tripinfo>
    <tripinfo id="flow_z2.1" depart="6.00" departLane="-E18_0" departPos="5.10" departSpeed="14.78" departDelay="0.00" arrival="191.00" arrivalLane="-E15_0" arrivalPos="479.20" arrivalSpeed="14.27" duration="185.00" routeLength="1988.38" waitingTime="25.00" waitingCount="1" stopTime="0.00" timeLoss="48.57" rerouteNo="0" devices="tripinfo_flow_z2.1 emissions_flow_z2.1" vType="Car" speedFactor="1.06" vaporized="">
        <emissions CO_abs="2358.05" CO2_abs="420632.24" HC_abs="15.77" PMx_abs="42.73" NOx_abs="149.93" fuel_abs="136363.81" electricity_abs="0.00"/>
    </tripinfo>
    <tripinfo id="flow_z2.2" depart="12.00" departLane="-E18_0" departPos="5.10" departSpeed="13.97" departDelay="0.00" arrival="193.00" arrivalLane="-E15_0" arrivalPos="479.20" arrivalSpeed="13.91" duration="181.00" routeLength="1988.38" waitingTime="21.00" waitingCount="1" stopTime="0.00" timeLoss="37.18" rerouteNo="0" devices="tripinfo_flow_z2.2 emissions_flow_z2.2" vType="Car" speedFactor="1.01" vaporized="">
        <emissions CO_abs="2079.10" CO2_abs="382162.13" HC_abs="13.91" PMx_abs="40.03" NOx_abs="135.83" fuel_abs="123892.32" electricity_abs="0.00"/>
    </tripinfo>
    <tripinfo id="flow_z2.3" depart="18.00" departLane="-E18_0" departPos="5.10" departSpeed="14.52" departDelay="0.00" arrival="194.00" arrivalLane="-E15_1" arrivalPos="479.20" arrivalSpeed="14.35" duration="176.00" routeLength="1984.04" waitingTime="18.00" waitingCount="1" stopTime="0.00" timeLoss="36.79" rerouteNo="0" devices="tripinfo_flow_z2.3 emissions_flow_z2.3" vType="Car" speedFactor="1.05" vaporized="">
        <emissions CO_abs="2297.90" CO2_abs="403437.93" HC_abs="15.38" PMx_abs="43.50" NOx_abs="143.96" fuel_abs="130789.58" electricity_abs="0.00"/>
    </tripinfo>
    <tripinfo id="18" depart="36.00" departLane="E32_0" departPos="5.10" departSpeed="0.00" departDelay="0.00" arrival="196.00" arrivalLane="E17_0" arrivalPos="465.43" arrivalSpeed="13.14" duration="160.00" routeLength="1839.24" waitingTime="0.00" waitingCount="0" stopTime="0.00" timeLoss="16.24" rerouteNo="0" devices="tripinfo_18 emissions_18" vType="Car" speedFactor="0.95" vaporized="">
        <emissions CO_abs="2225.07" CO2_abs="382461.04" HC_abs="14.81" PMx_abs="37.43" NOx_abs="131.77" fuel_abs="123988.69" electricity_abs="0.00"/>
    </tripinfo>
    <tripinfo id="flow_z2.4" depart="24.00" departLane="-E18_0" departPos="5.10" departSpeed="14.64" departDelay="0.00" arrival="196.00" arrivalLane="-E15_1" arrivalPos="479.20" arrivalSpeed="14.50" duration="172.00" routeLength="1988.38" waitingTime="12.00" waitingCount="1" stopTime="0.00" timeLoss="34.09" rerouteNo="0" devices="tripinfo_flow_z2.4 emissions_flow_z2.4" vType="Car" speedFactor="1.05" vaporized="">
        <emissions CO_abs="2306.36" CO2_abs="400272.21" HC_abs="15.46" PMx_abs="44.29" NOx_abs="141.25" fuel_abs="129763.17" electricity_abs="0.00"/>
    </tripinfo>
    <tripinfo id="flow_z3.11" depart="66.00" departLane="-E28_1" departPos="5.10" departSpeed="15.34" departDelay="0.00" arrival="197.00" arrivalLane="-E29_1" arrivalPos="266.06" arrivalSpeed="14.71" duration="131.00" routeLength="1186.43" waitingTime="18.00" waitingCount="3" stopTime="0.00" timeLoss="51.88" rerouteNo="0" devices="tripinfo_flow_z3.11 emissions_flow_z3.11" vType="Car" speedFactor="1.10" vaporized="">
        <emissions CO_abs="1993.62" CO2_abs="334677.69" HC_abs="13.24" PMx_abs="24.94" NOx_abs="117.01" fuel_abs="108497.79" electricity_abs="0.00"/>
    </tripinfo>
    <tripinfo id="flow_z2.0" depart="0.00" departLane="-E18_0" departPos="5.10" departSpeed="12.79" departDelay="0.00" arrival="198.00" arrivalLane="-E15_0" arrivalPos="479.20" arrivalSpeed="12.04" duration="198.00" routeLength="1988.38" waitingTime="24.00" waitingCount="1" stopTime="0.00" timeLoss="40.18" rerouteNo="0" devices="tripinfo_flow_z2.0 emissions_flow_z2.0" vType="Car" speedFactor="0.92" vaporized="">
        <emissions CO_abs="1817.37" CO2_abs="403039.36" HC_abs="12.16" PMx_abs="42.01" NOx_abs="142.07" fuel_abs="130660.69" electricity_abs="0.00"/>
    </tripinfo>
    <tripinfo id="54" depart="108.00" departLane="-E6_0" departPos="5.10" departSpeed="0.00" departDelay="0.00" arrival="198.00" arrivalLane="E6_1" arrivalPos="466.06" arrivalSpeed="6.96" duration="90.00" routeLength="1043.03" waitingTime="2.00" waitingCount="1" stopTime="0.00" timeLoss="19.52" rerouteNo="0" devices="tripinfo_54 emissions_54" vType="Car" speedFactor="1.10" vaporized="">
        <emissions CO_abs="1516.37" CO2_abs="244541.72" HC_abs="10.12" PMx_abs="23.58" NOx_abs="84.50" fuel_abs="79276.90" electricity_abs="0.00"/>
    </tripinfo>
    <tripinfo id="68" depart="136.00" departLane="-E13_0" departPos="5.10" departSpeed="0.00" departDelay="0.00" arrival="199.00" arrivalLane="E27_1" arrivalPos="279.20" arrivalSpeed="13.52" duration="63.00" routeLength="772.65" waitingTime="0.00" waitingCount="0" stopTime="0.00" timeLoss="7.00" rerouteNo="0" devices="tripinfo_68 emissions_68" vType="Car" speedFactor="1.01" vaporized="">
        <emissions CO_abs="952.74" CO2_abs="160575.41" HC_abs="6.36" PMx_abs="16.59" NOx_abs="55.37" fuel_abs="52056.34" electricity_abs="0.00"/>
    </tripinfo>
    <tripinfo id="flow_z3.8" depart="48.00" departLane="-E28_1" departPos="5.10" departSpeed="14.87" departDelay="0.00" arrival="200.00" arrivalLane="-E29_0" arrivalPos="266.06" arrivalSpeed="14.43" duration="152.00" routeLength="1186.43" waitingTime="31.00" waitingCount="3" stopTime="0.00" timeLoss="70.25" rerouteNo="0" devices="tripinfo_flow_z3.8 emissions_flow_z3.8" vType="Car" speedFactor="1.07" vaporized="">
        <emissions CO_abs="1534.58" CO2_abs="340834.85" HC_abs="10.22" PMx_abs="24.89" NOx_abs="118.82" fuel_abs="110494.27" electricity_abs="0.00"/>
    </tripinfo>
    <tripinfo id="3" depart="6.00" departLane="E37_0" departPos="5.10" departSpeed="0.00" departDelay="0.00" arrival="201.00" arrivalLane="-E14_1" arrivalPos="279.20" arrivalSpeed="14.38" duration="195.00" routeLength="1837.99" waitingTime="48.00" waitingCount="1" stopTime="0.00" timeLoss="68.04" rerouteNo="0" devices="tripinfo_3 emissions_3" vType="Car" speedFactor="1.06" vaporized="">
        <emissions CO_abs="2404.17" CO2_abs="466288.83" HC_abs="16.09" PMx_abs="43.05" NOx_abs="166.52" fuel_abs="151165.13" electricity_abs="0.00"/>
    </tripinfo>
    <tripinfo id="flow_z2.5" depart="30.00" departLane="-E18_0" departPos="5.10" departSpeed="14.16" departDelay="0.00" arrival="203.00" arrivalLane="-E15_1" arrivalPos="479.20" arrivalSpeed="12.24" duration="173.00" routeLength="1988.38" waitingTime="6.00" waitingCount="1" stopTime="0.00" timeLoss="30.37" rerouteNo="0" devices="tripinfo_flow_z2.5 emissions_flow_z2.5" vType="Car" speedFactor="1.02" vaporized="">
        <emissions CO_abs="2117.17" CO2_abs="391645.15" HC_abs="14.20" PMx_abs="44.35" NOx_abs="137.25" fuel_abs="126966.47" electricity_abs="0.00"/>
    </tripinfo>
    <tripinfo id="flow_z3.10" depart="60.00" departLane="-E28_1" departPos="5.10" departSpeed="14.21" departDelay="0.00" arrival="206.00" arrivalLane="-E29_1" arrivalPos="266.06" arrivalSpeed="14.04" duration="146.00" routeLength="1186.43" waitingTime="24.00" waitingCount="1" stopTime="0.00" timeLoss="61.23" rerouteNo="0" devices="tripinfo_flow_z3.10 emissions_flow_z3.10" vType="Car" speedFactor="1.02" vaporized="">
        <emissions CO_abs="1472.45" CO2_abs="330791.83" HC_abs="9.79" PMx_abs="25.52" NOx_abs="113.44" fuel_abs="107238.41" electricity_abs="0.00"/>
    </tripinfo>
    <tripinfo id="flow_z3.13" depart="78.00" departLane="-E28_1" departPos="5.10" departSpeed="12.47" departDelay="0.00" arrival="206.00" arrivalLane="-E29_0" arrivalPos="266.06" arrivalSpeed="12.08" duration="128.00" routeLength="1186.43" waitingTime="8.00" waitingCount="2" stopTime="0.00" timeLoss="30.33" rerouteNo="0" devices="tripinfo_flow_z3.13 emissions_flow_z3.13" vType="Car" speedFactor="0.90" vaporized="">
        <emissions CO_abs="1183.50" CO2_abs="276433.92" HC_abs="7.89" PMx_abs="25.27" NOx_abs="94.85" fuel_abs="89616.35" electricity_abs="0.00"/>
    </tripinfo>
    <tripinfo id="49" depart="98.00" departLane="E7_0" departPos="5.10" departSpeed="0.00" departDelay="0.00" arrival="210.00" arrivalLane="E34_0" arrivalPos="266.06" arrivalSpeed="10.06" duration="112.00" routeLength="1101.24" waitingTime="0.00" waitingCount="0" stopTime="0.00" timeLoss="11.40" rerouteNo="0" devices="tripinfo_49 emissions_49" vType="Car" speedFactor="0.81" vaporized="">
        <emissions CO_abs="835.58" CO2_abs="218052.29" HC_abs="5.58" PMx_abs="22.50" NOx_abs="74.40" fuel_abs="70689.90" electricity_abs="0.00"/>
    </tripinfo>
    <tripinfo id="flow_z3.12" depart="72.00" departLane="-E28_1" departPos="5.10" departSpeed="13.10" departDelay="0.00" arrival="210.00" arrivalLane="-E29_0" arrivalPos="266.06" arrivalSpeed="12.48" duration="138.00" routeLength="1186.43" waitingTime="14.00" waitingCount="1" stopTime="0.00" timeLoss="45.56" rerouteNo="0" devices="tripinfo_flow_z3.12 emissions_flow_z3.12" vType="Car" speedFactor="0.94" vaporized="">
        <emissions CO_abs="1317.99" CO2_abs="302697.15" HC_abs="8.77" PMx_abs="24.71" NOx_abs="103.44" fuel_abs="98130.44" electricity_abs="0.00"/>
    </tripinfo>
    <tripinfo id="flow_z2.7" depart="42.00" departLane="-E18_0" departPos="5.10" departSpeed="12.95" departDelay="0.00" arrival="211.00" arrivalLane="-E15_0" arrivalPos="479.20" arrivalSpeed="12.72" duration="169.00" routeLength="1988.38" waitingTime="0.00" waitingCount="0" stopTime="0.00" timeLoss="13.61" rerouteNo="0" devices="tripinfo_flow_z2.7 emissions_flow_z2.7" vType="Car" speedFactor="0.93" vaporized="">
        <emissions CO_abs="1668.86" CO2_abs="335034.33" HC_abs="11.19" PMx_abs="41.39" NOx_abs="118.43" fuel_abs="108614.28" electricity_abs="0.00"/>
    </tripinfo>
    <tripinfo id="flow_z2.9" depart="54.00" departLane="-E18_0" departPos="5.10" departSpeed="14.96" departDelay="0.00" arrival="211.00" arrivalLane="-E15_1" arrivalPos="479.20" arrivalSpeed="14.34" duration="157.00" routeLength="1984.04" waitingTime="2.00" waitingCount="1" stopTime="0.00" timeLoss="22.60" rerouteNo="0" devices="tripinfo_flow_z2.9 emissions_flow_z2.9" vType="Car" speedFactor="1.08" vaporized="">
        <emissions CO_abs="2372.00" CO2_abs="367480.73" HC_abs="15.86" PMx_abs="41.46" NOx_abs="130.02" fuel_abs="119132.45" electricity_abs="0.00"/>
    </tripinfo>
    <tripinfo id="flow_z3.9" depart="54.00" departLane="-E28_1" departPos="5.10" departSpeed="16.79" departDelay="0.00" arrival="211.00" arrivalLane="-E29_1" arrivalPos="266.06" arrivalSpeed="15.96" duration="157.00" routeLength="1186.43" waitingTime="37.00" waitingCount="3" stopTime="0.00" timeLoss="84.83" rerouteNo="0" devices="tripinfo_flow_z3.9 emissions_flow_z3.9" vType="Car" speedFactor="1.21" vaporized="">
        <emissions CO_abs="1819.93" CO2_abs="377013.09" HC_abs="12.11" PMx_abs="26.16" NOx_abs="130.76" fuel_abs="122222.66" electricity_abs="0.00"/>
    </tripinfo>
    <tripinfo id="flow_z3.14" depart="84.00" departLane="-E28_1" departPos="5.10" departSpeed="12.93" departDelay="0.00" arrival="213.00" arrivalLane="-E29_0" arrivalPos="266.06" arrivalSpeed="12.92" duration="129.00" routeLength="1186.43" waitingTime="3.00" waitingCount="1" stopTime="0.00" timeLoss="35.22" rerouteNo="0" devices="tripinfo_flow_z3.14 emissions_flow_z3.14" vType="Car" speedFactor="0.93" vaporized="">
        <emissions CO_abs="1328.57" CO2_abs="285965.05" HC_abs="8.84" PMx_abs="24.10" NOx_abs="95.76" fuel_abs="92705.88" electricity_abs="0.00"/>
    </tripinfo>
    <tripinfo id="flow_z2.6" depart="36.00" departLane="-E18_0" departPos="5.10" departSpeed="12.78" departDelay="0.00" arrival="215.00" arrivalLane="-E15_0" arrivalPos="479.20" arrivalSpeed="11.98" duration="179.00" routeLength="1984.04" waitingTime="3.00" waitingCount="1" stopTime="0.00" timeLoss="21.39" rerouteNo="0" devices="tripinfo_flow_z2.6 emissions_flow_z2.6" vType="Car" speedFactor="0.92" vaporized="">
        <emissions CO_abs="1699.25" CO2_abs="372175.15" HC_abs="11.40" PMx_abs="44.06" NOx_abs="130.39" fuel_abs="120654.81" electricity_abs="0.00"/>
    </tripinfo>
    <tripinfo id="flow_z3.15" depart="90.00" departLane="-E28_1" departPos="5.10" departSpeed="14.93" departDelay="0.00" arrival="216.00" arrivalLane="-E29_0" arrivalPos="266.06" arrivalSpeed="14.86" duration="126.00" routeLength="1186.43" waitingTime="1.00" waitingCount="1" stopTime="0.00" timeLoss="44.85" rerouteNo="0" devices="tripinfo_flow_z3.15 emissions_flow_z3.15" vType="Car" speedFactor="1.07" vaporized="">
        <emissions CO_abs="1465.81" CO2_abs="291816.50" HC_abs="9.74" PMx_abs="23.41" NOx_abs="97.80" fuel_abs="94602.69" electricity_abs="0.00"/>
    </tripinfo>
    <tripinfo id="41" depart="82.00" departLane="E14_0" departPos="5.10" departSpeed="0.00" departDelay="0.00" arrival="219.00" arrivalLane="E37_1" arrivalPos="266.06" arrivalSpeed="11.92" duration="137.00" routeLength="1537.42" waitingTime="0.00" waitingCount="0" stopTime="0.00" timeLoss="17.60" rerouteNo="0" devices="tripinfo_41 emissions_41" vType="Car" speedFactor="0.94" vaporized="">
        <emissions CO_abs="1623.29" CO2_abs="317539.46" HC_abs="10.84" PMx_abs="32.96" NOx_abs="108.26" fuel_abs="102942.07" electricity_abs="0.00"/>
    </tripinfo>
    <tripinfo id="flow_z2.8" depart="48.00" departLane="-E18_0" departPos="5.10" departSpeed="14.04" departDelay="0.00" arrival="219.00" arrivalLane="-E15_0" arrivalPos="479.20" arrivalSpeed="13.90" duration="171.00" routeLength="1984.04" waitingTime="4.00" waitingCount="1" stopTime="0.00" timeLoss="27.24" rerouteNo="0" devices="tripinfo_flow_z2.8 emissions_flow_z2.8" vType="Car" speedFactor="1.01" vaporized="">
        <emissions CO_abs="2172.48" CO2_abs="384357.22" HC_abs="14.52" PMx_abs="42.12" NOx_abs="134.70" fuel_abs="124603.65" electricity_abs="0.00"/>
    </tripinfo>
    <tripinfo id="flow_z2.10" depart="60.00" departLane="-E18_0" departPos="5.10" departSpeed="13.45" departDelay="0.00" arrival="222.00" arrivalLane="-E15_0" arrivalPos="479.20" arrivalSpeed="12.17" duration="162.00" routeLength="1984.04" waitingTime="0.00" waitingCount="0" stopTime="0.00" timeLoss="12.81" rerouteNo="0" devices="tripinfo_flow_z2.10 emissions_flow_z2.10" vType="Car" speedFactor="0.97" vaporized="">
        <emissions CO_abs="1902.65" CO2_abs="341006.16" HC_abs="12.74" PMx_abs="41.45" NOx_abs="121.03" fuel_abs="110550.13" electricity_abs="0.00"/>
    </tripinfo>