<?xml version="1.0" encoding="UTF-8"?>

<!-- generated on 2026-05-30T17:19:06.629397+00:00 by Eclipse SUMO sumo 1.26.0
<sumoConfiguration xmlns:xsi="http://www.w3.org/2001/XMLSchema-instance" xsi:noNamespaceSchemaLocation="http://sumo.dlr.de/xsd/sumoConfiguration.xsd">

    <input>
        <net-file value="manhattan.net.xml"/>
        <route-files value="routes.rou.xml,background.rou.xml"/>
        <additional-files value="mosaic_types.add.xml"/>
    </input>

    <output>
        <tripinfo-output value="/home/netsim/opt/tpnpr/tripinfo.xml"/>
    </output>

    <time>
        <begin value="0"/>
        <end value="3600"/>
        <step-length value="1.00"/>
    </time>

    <processing>
        <ignore-route-errors value="true"/>
        <time-to-teleport value="0"/>
    </processing>

    <report>
        <verbose value="true"/>
        <no-step-log value="true"/>
    </report>

    <emissions>
        <device.emissions.probability value="1.0"/>
    </emissions>

    <traci_server>
        <remote-port value="32955"/>
    </traci_server>

    <random_number>
        <seed value="100000"/>
    </random_number>

</sumoConfiguration>
-->

<tripinfos xmlns:xsi="http://www.w3.org/2001/XMLSchema-instance" xsi:noNamespaceSchemaLocation="http://sumo.dlr.de/xsd/tripinfo_file.xsd">
    <tripinfo id="13" depart="26.00" departLane="-E15_0" departPos="5.10" departSpeed="0.00" departDelay="0.00" arrival="71.00" arrivalLane="-E15_0" arrivalPos="479.20" arrivalSpeed="11.60" duration="45.00" routeLength="474.10" waitingTime="0.00" waitingCount="0" stopTime="0.00" timeLoss="5.31" rerouteNo="0" devices="tripinfo_13 emissions_13" vType="Car" speedFactor="0.88" vaporized="">
        <emissions CO_abs="414.48" CO2_abs="98313.66" HC_abs="2.77" PMx_abs="10.30" NOx_abs="33.27" fuel_abs="31872.01" electricity_abs="0.00"/>
    </tripinfo>
    <tripinfo id="flow_z3.1" depart="2.00" departLane="-E28_1" departPos="5.10" departSpeed="13.87" departDelay="0.33" arrival="85.00" arrivalLane="-E29_0" arrivalPos="266.06" arrivalSpeed="15.71" duration="83.00" routeLength="1186.43" waitingTime="0.00" waitingCount="0" stopTime="0.00" timeLoss="7.83" rerouteNo="0" devices="tripinfo_flow_z3.1 emissions_flow_z3.1" vType="Car" speedFactor="1.16" vaporized="">
        <emissions CO_abs="1605.16" CO2_abs="214740.08" HC_abs="10.76" PMx_abs="26.20" NOx_abs="77.80" fuel_abs="69615.93" electricity_abs="0.00"/>
    </tripinfo>
    <tripinfo id="22" depart="44.00" departLane="-E14_0" departPos="5.10" departSpeed="0.00" departDelay="0.00" arrival="99.00" arrivalLane="-E25_0" arrivalPos="279.20" arrivalSpeed="11.43" duration="55.00" routeLength="574.10" waitingTime="0.00" waitingCount="0" stopTime="0.00" timeLoss="5.64" rerouteNo="0" devices="tripinfo_22 emissions_22" vType="Car" speedFactor="0.85" vaporized="">
        <emissions CO_abs="471.12" CO2_abs="114066.97" HC_abs="3.15" PMx_abs="12.09" NOx_abs="38.75" fuel_abs="36979.06" electricity_abs="0.00"/>
    </tripinfo>
    <tripinfo id="flow_z3.0" depart="0.00" departLane="-E28_1" departPos="5.10" departSpeed="12.68" departDelay="0.00" arrival="104.00" arrivalLane="-E29_0" arrivalPos="266.06" arrivalSpeed="12.11" duration="104.00" routeLength="1186.43" waitingTime="0.00" waitingCount="0" stopTime="0.00" timeLoss="8.15" rerouteNo="0" devices="tripinfo_flow_z3.0 emissions_flow_z3.0" vType="Car" speedFactor="0.91" vaporized="">
        <emissions CO_abs="938.67" CO2_abs="201416.08" HC_abs="6.30" PMx_abs="25.09" NOx_abs="71.37" fuel_abs="65296.85" electricity_abs="0.00"/>
    </tripinfo>
    <tripinfo id="flow_z3.2" depart="4.00" departLane="-E28_1" departPos="5.10" departSpeed="13.74" departDelay="0.67" arrival="104.00" arrivalLane="-E29_1" arrivalPos="266.06" arrivalSpeed="13.64" duration="100.00" routeLength="1186.43" waitingTime="0.00" waitingCount="0" stopTime="0.00" timeLoss="11.86" rerouteNo="0" devices="tripinfo_flow_z3.2 emissions_flow_z3.2" vType="Car" speedFactor="0.99" vaporized="">
        <emissions CO_abs="1312.96" CO2_abs="218359.41" HC_abs="8.75" PMx_abs="22.93" NOx_abs="76.55" fuel_abs="70789.29" electricity_abs="0.00"/>
    </tripinfo>
    <tripinfo id="flow_z3.3" depart="5.00" departLane="-E28_1" departPos="5.10" departSpeed="10.42" departDelay="0.00" arrival="107.00" arrivalLane="-E29_0" arrivalPos="266.06" arrivalSpeed="13.60" duration="102.00" routeLength="1186.43" waitingTime="0.00" waitingCount="0" stopTime="0.00" timeLoss="13.59" rerouteNo="0" devices="tripinfo_flow_z3.3 emissions_flow_z3.3" vType="Car" speedFactor="0.99" vaporized="">
        <emissions CO_abs="1478.94" CO2_abs="237776.53" HC_abs="9.85" PMx_abs="23.99" NOx_abs="83.18" fuel_abs="77083.99" electricity_abs="0.00"/>
    </tripinfo>
    <tripinfo id="flow_z3.4" depart="7.00" departLane="-E28_1" departPos="5.10" departSpeed="11.71" departDelay="0.34" arrival="108.00" arrivalLane="-E29_0" arrivalPos="266.06" arrivalSpeed="13.82" duration="101.00" routeLength="1186.43" waitingTime="0.00" waitingCount="0" stopTime="0.00" timeLoss="14.28" rerouteNo="0" devices="tripinfo_flow_z3.4 emissions_flow_z3.4" vType="Car" speedFactor="1.01" vaporized="">
        <emissions CO_abs="1490.75" CO2_abs="238837.04" HC_abs="9.93" PMx_abs="24.01" NOx_abs="83.53" fuel_abs="77427.78" electricity_abs="0.00"/>
    </tripinfo>
    <tripinfo id="flow_z3.5" depart="9.00" departLane="-E28_1" departPos="5.10" departSpeed="12.78" departDelay="0.67" arrival="110.00" arrivalLane="-E29_0" arrivalPos="266.06" arrivalSpeed="14.45" duration="101.00" routeLength="1186.43" waitingTime="0.00" waitingCount="0" stopTime="0.00" timeLoss="18.73" rerouteNo="0" devices="tripinfo_flow_z3.5 emissions_flow_z3.5" vType="Car" speedFactor="1.06" vaporized="">
        <emissions CO_abs="1654.16" CO2_abs="247177.04" HC_abs="10.99" PMx_abs="23.13" NOx_abs="86.37" fuel_abs="80131.36" electricity_abs="0.00"/>
    </tripinfo>
    <tripinfo id="flow_z3.6" depart="10.00" departLane="-E28_1" departPos="5.10" departSpeed="9.98" departDelay="0.00" arrival="112.00" arrivalLane="-E29_0" arrivalPos="266.06" arrivalSpeed="14.43" duration="102.00" routeLength="1186.43" waitingTime="0.00" waitingCount="0" stopTime="0.00" timeLoss="22.42" rerouteNo="0" devices="tripinfo_flow_z3.6 emissions_flow_z3.6" vType="Car" speedFactor="1.10" vaporized="">
        <emissions CO_abs="1700.93" CO2_abs="262222.14" HC_abs="11.32" PMx_abs="25.29" NOx_abs="91.80" fuel_abs="85008.84" electricity_abs="0.00"/>
    </tripinfo>
    <tripinfo id="flow_z3.8" depart="14.00" departLane="-E28_1" departPos="5.10" departSpeed="10.71" departDelay="0.67" arrival="113.00" arrivalLane="-E29_0" arrivalPos="266.06" arrivalSpeed="14.52" duration="99.00" routeLength="1186.43" waitingTime="0.00" waitingCount="0" stopTime="0.00" timeLoss="17.53" rerouteNo="0" devices="tripinfo_flow_z3.8 emissions_flow_z3.8" vType="Car" speedFactor="1.07" vaporized="">
        <emissions CO_abs="1653.16" CO2_abs="249762.78" HC_abs="11.01" PMx_abs="24.59" NOx_abs="87.49" fuel_abs="80969.68" electricity_abs="0.00"/>
    </tripinfo>
    <tripinfo id="12" depart="24.00" departLane="E6_0" departPos="5.10" departSpeed="0.00" departDelay="0.00" arrival="128.00" arrivalLane="-E32_0" arrivalPos="266.06" arrivalSpeed="13.07" duration="104.00" routeLength="1239.52" waitingTime="0.00" waitingCount="0" stopTime="0.00" timeLoss="10.12" rerouteNo="0" devices="tripinfo_12 emissions_12" vType="Car" speedFactor="0.97" vaporized="">
        <emissions CO_abs="1260.86" CO2_abs="230068.10" HC_abs="8.43" PMx_abs="25.82" NOx_abs="80.26" fuel_abs="74585.14" electricity_abs="0.00"/>
    </tripinfo>
    <tripinfo id="21" depart="42.00" departLane="-E25_0" departPos="5.10" departSpeed="0.00" departDelay="0.00" arrival="131.00" arrivalLane="-E3_0" arrivalPos="483.20" arrivalSpeed="12.67" duration="89.00" routeLength="1079.36" waitingTime="0.00" waitingCount="0" stopTime="0.00" timeLoss="7.64" rerouteNo="0" devices="tripinfo_21 emissions_21" vType="Car" speedFactor="0.96" vaporized="">
        <emissions CO_abs="1104.78" CO2_abs="197370.71" HC_abs="7.38" PMx_abs="21.75" NOx_abs="68.58" fuel_abs="63985.01" electricity_abs="0.00"/>
    </tripinfo>
    <tripinfo id="30" depart="60.00" departLane="E9_0" departPos="5.10" departSpeed="0.00" departDelay="0.00" arrival="133.00" arrivalLane="E19_0" arrivalPos="283.20" arrivalSpeed="15.67" duration="73.00" routeLength="878.10" waitingTime="4.00" waitingCount="1" stopTime="0.00" timeLoss="17.09" rerouteNo="0" devices="tripinfo_30 emissions_30" vType="Car" speedFactor="1.13" vaporized="">
        <emissions CO_abs="1284.46" CO2_abs="205875.79" HC_abs="8.60" PMx_abs="21.28" NOx_abs="71.59" fuel_abs="66742.06" electricity_abs="0.00"/>
    </tripinfo>
    <tripinfo id="4" depart="8.00" departLane="-E39_0" departPos="5.10" departSpeed="0.00" departDelay="0.00" arrival="147.00" arrivalLane="-E10_0" arrivalPos="479.20" arrivalSpeed="11.51" duration="139.00" routeLength="1552.66" waitingTime="0.00" waitingCount="0" stopTime="0.00" timeLoss="13.34" rerouteNo="0" devices="tripinfo_4 emissions_4" vType="Car" speedFactor="0.90" vaporized="">
        <emissions CO_abs="1471.99" CO2_abs="297168.75" HC_abs="9.83" PMx_abs="32.18" NOx_abs="102.44" fuel_abs="96338.36" electricity_abs="0.00"/>
    </tripinfo>
    <tripinfo id="1" depart="2.00" departLane="-E29_0" departPos="5.10" departSpeed="0.00" departDelay="0.00" arrival="153.00" arrivalLane="-E24_0" arrivalPos="283.20" arrivalSpeed="13.87" duration="151.00" routeLength="1942.97" waitingTime="0.00" waitingCount="0" stopTime="0.00" timeLoss="15.30" rerouteNo="0" devices="tripinfo_1 emissions_1" vType="Car" speedFactor="1.04" vaporized="">
        <emissions CO_abs="2170.55" CO2_abs="361889.20" HC_abs="14.56" PMx_abs="42.99" NOx_abs="127.23" fuel_abs="117319.84" electricity_abs="0.00"/>
    </tripinfo>
    <tripinfo id="48" depart="96.00" departLane="E9_0" departPos="5.10" departSpeed="0.00" departDelay="0.00" arrival="158.00" arrivalLane="E10_0" arrivalPos="479.20" arrivalSpeed="14.16" duration="62.00" routeLength="772.65" waitingTime="0.00" waitingCount="0" stopTime="0.00" timeLoss="7.19" rerouteNo="0" devices="tripinfo_48 emissions_48" vType="Car" speedFactor="1.03" vaporized="">
        <emissions CO_abs="1035.69" CO2_abs="170335.18" HC_abs="6.92" PMx_abs="17.47" NOx_abs="58.53" fuel_abs="55220.28" electricity_abs="0.00"/>
    </tripinfo>
    <tripinfo id="23" depart="46.00" departLane="-E16_0" departPos="5.10" departSpeed="0.00" departDelay="0.00" arrival="162.00" arrivalLane="-E29_0" arrivalPos="266.06" arrivalSpeed="13.66" duration="116.00" routeLength="1384.98" waitingTime="2.00" waitingCount="1" stopTime="0.00" timeLoss="17.83" rerouteNo="0" devices="tripinfo_23 emissions_23" vType="Car" speedFactor="1.05" vaporized="">
        <emissions CO_abs="1735.97" CO2_abs="300153.13" HC_abs="11.62" PMx_abs="33.04" NOx_abs="104.14" fuel_abs="97305.66" electricity_abs="0.00"/>
    </tripinfo>
    <tripinfo id="flow_z3.9" depart="15.00" departLane="-E28_1" departPos="5.10" departSpeed="7.03" departDelay="0.01" arrival="166.00" arrivalLane="-E29_0" arrivalPos="266.06" arrivalSpeed="16.63" duration="151.00" routeLength="1186.43" waitingTime="56.00" waitingCount="2" stopTime="0.00" timeLoss="78.30" rerouteNo="0" devices="tripinfo_flow_z3.9 emissions_flow_z3.9" vType="Car" speedFactor="1.21" vaporized="">
        <emissions CO_abs="1962.49" CO2_abs="362394.44" HC_abs="13.11" PMx_abs="27.87" NOx_abs="132.00" fuel_abs="117483.84" electricity_abs="0.00"/>
    </tripinfo>
    <tripinfo id="16" depart="32.00" departLane="E10_0" departPos="5.10" departSpeed="0.00" departDelay="0.00" arrival="177.00" arrivalLane="E7_0" arrivalPos="466.06" arrivalSpeed="14.07" duration="145.00" routeLength="1801.77" waitingTime="2.00" waitingCount="1" stopTime="0.00" timeLoss="19.80" rerouteNo="0" devices="tripinfo_16 emissions_16" vType="Car" speedFactor="1.06" vaporized="">
        <emissions CO_abs="2273.01" CO2_abs="361530.98" HC_abs="15.18" PMx_abs="37.92" NOx_abs="126.33" fuel_abs="117203.45" electricity_abs="0.00"/>
    </tripinfo>
    <tripinfo id="flow_z1.3" depart="5.00" departLane="-E1_0" departPos="5.10" departSpeed="10.50" departDelay="0.00" arrival="179.00" arrivalLane="E19_1" arrivalPos="283.20" arrivalSpeed="13.55" duration="174.00" routeLength="2181.19" waitingTime="0.00" waitingCount="0" stopTime="0.00" timeLoss="19.90" rerouteNo="0" devices="tripinfo_flow_z1.3 emissions_flow_z1.3" vType="Car" speedFactor="1.03" vaporized="">
        <emissions CO_abs="2695.73" CO2_abs="403261.51" HC_abs="17.97" PMx_abs="42.87" NOx_abs="143.22" fuel_abs="130732.07" electricity_abs="0.00"/>
    </tripinfo>
    <tripinfo id="flow_z3.7" depart="12.00" departLane="-E28_1" departPos="5.10" departSpeed="9.90" departDelay="0.34" arrival="185.00" arrivalLane="-E29_0" arrivalPos="266.06" arrivalSpeed="12.17" duration="173.00" routeLength="1186.43" waitingTime="62.00" waitingCount="1" stopTime="0.00" timeLoss="76.29" rerouteNo="0" devices="tripinfo_flow_z3.7 emissions_flow_z3.7" vType="Car" speedFactor="0.90" vaporized="">
        <emissions CO_abs="1220.94" CO2_abs="338336.54" HC_abs="8.14" PMx_abs="24.56" NOx_abs="122.14" fuel_abs="109685.03" electricity_abs="0.00"/>
    </tripinfo>
    <tripinfo id="11" depart="22.00" departLane="-E33_0" departPos="5.10" departSpeed="0.00" departDelay="0.00" arrival="187.00" arrivalLane="-E2_0" arrivalPos="479.20" arrivalSpeed="13.79" duration="165.00" routeLength="2093.43" waitingTime="0.00" waitingCount="0" stopTime="0.00" timeLoss="15.26" rerouteNo="0" devices="tripinfo_11 emissions_11" vType="Car" speedFactor="1.03" vaporized="">
        <emissions CO_abs="2367.45" CO2_abs="384624.55" HC_abs="15.84" PMx_abs="43.80" NOx_abs="135.55" fuel_abs="124690.31" electricity_abs="0.00"/>
    </tripinfo>
    <tripinfo id="flow_z1.0" depart="0.00" departLane="-E1_0" departPos="5.10" departSpeed="13.81" departDelay="0.00" arrival="188.00" arrivalLane="E19_0" arrivalPos="283.20" arrivalSpeed="8.33" duration="188.00" routeLength="2181.19" waitingTime="0.00" waitingCount="0" stopTime="0.00" timeLoss="29.22" rerouteNo="0" devices="tripinfo_flow_z1.0 emissions_flow_z1.0" vType="Car" speedFactor="0.99" vaporized="">
        <emissions CO_abs="1682.47" CO2_abs="356797.54" HC_abs="11.32" PMx_abs="46.41" NOx_abs="129.63" fuel_abs="115670.03" electricity_abs="0.00"/>
    </tripinfo>
    <tripinfo id="flow_z3.14" depart="24.00" departLane="-E28_1" departPos="5.10" departSpeed="5.36" departDelay="0.68" arrival="188.00" arrivalLane="-E29_0" arrivalPos="266.06" arrivalSpeed="12.87" duration="164.00" routeLength="1186.43" waitingTime="53.00" waitingCount="1" stopTime="0.00" timeLoss="70.20" rerouteNo="0" devices="tripinfo_flow_z3.14 emissions_flow_z3.14" vType="Car" speedFactor="0.93" vaporized="">
        <emissions CO_abs="1397.59" CO2_abs="343889.77" HC_abs="9.30" PMx_abs="25.19" NOx_abs="122.66" fuel_abs="111485.08" electricity_abs="0.00"/>
    </tripinfo>
    <tripinfo id="flow_z3.13" depart="23.00" departLane="-E28_1" departPos="5.10" departSpeed="9.21" departDelay="1.34" arrival="191.00" arrivalLane="-E29_0" arrivalPos="266.06" arrivalSpeed="11.99" duration="168.00" routeLength="1186.43" waitingTime="50.00" waitingCount="1" stopTime="0.00" timeLoss="70.16" rerouteNo="0" devices="tripinfo_flow_z3.13 emissions_flow_z3.13" vType="Car" speedFactor="0.90" vaporized="">
        <emissions CO_abs="1189.83" CO2_abs="317088.67" HC_abs="7.92" PMx_abs="22.63" NOx_abs="112.36" fuel_abs="102796.51" electricity_abs="0.00"/>
    </tripinfo>
    <tripinfo id="flow_z1.2" depart="4.00" departLane="-E1_0" departPos="5.10" departSpeed="13.56" departDelay="0.67" arrival="193.00" arrivalLane="E19_1" arrivalPos="283.20" arrivalSpeed="8.33" duration="189.00" routeLength="2181.19" waitingTime="0.00" waitingCount="0" stopTime="0.00" timeLoss="50.35" rerouteNo="0" devices="tripinfo_flow_z1.2 emissions_flow_z1.2" vType="Car" speedFactor="1.14" vaporized="">
        <emissions CO_abs="2090.44" CO2_abs="392512.40" HC_abs="13.99" PMx_abs="46.87" NOx_abs="142.29" fuel_abs="127248.10" electricity_abs="0.00"/>
    </tripinfo>
    <tripinfo id="flow_z2.0" depart="0.00" departLane="-E18_0" departPos="5.10" departSpeed="12.79" departDelay="0.00" arrival="196.00" arrivalLane="-E15_0" arrivalPos="479.20" arrivalSpeed="11.87" duration="196.00" routeLength="1988.38" waitingTime="21.00" waitingCount="1" stopTime="0.00" timeLoss="37.91" rerouteNo="0" devices="tripinfo_flow_z2.0 emissions_flow_z2.0" vType="Car" speedFactor="0.92" vaporized="">
        <emissions CO_abs="1887.59" CO2_abs="401318.72" HC_abs="12.62" PMx_abs="41.50" NOx_abs="141.90" fuel_abs="130102.79" electricity_abs="0.00"/>
    </tripinfo>
    <tripinfo id="54" depart="108.00" departLane="-E6_0" departPos="5.10" departSpeed="0.00" departDelay="0.00" arrival="196.00" arrivalLane="E6_1" arrivalPos="466.06" arrivalSpeed="6.51" duration="88.00" routeLength="1043.03" waitingTime="0.00" waitingCount="0" stopTime="0.00" timeLoss="17.74" rerouteNo="0" devices="tripinfo_54 emissions_54" vType="Car" speedFactor="1.10" vaporized="">
        <emissions CO_abs="1499.18" CO2_abs="239473.64" HC_abs="10.01" PMx_abs="23.54" NOx_abs="82.50" fuel_abs="77633.93" electricity_abs="0.00"/>
    </tripinfo>
    <tripinfo id="18" depart="36.00" departLane="E32_0" departPos="5.10" departSpeed="0.00" departDelay="0.00" arrival="197.00" arrivalLane="E17_0" arrivalPos="465.43" arrivalSpeed="12.31" duration="161.00" routeLength="1839.24" waitingTime="0.00" waitingCount="0" stopTime="0.00" timeLoss="17.87" rerouteNo="0" devices="tripinfo_18 emissions_18" vType="Car" speedFactor="0.95" vaporized="">
        <emissions CO_abs="1999.51" CO2_abs="371637.73" HC_abs="13.34" PMx_abs="39.34" NOx_abs="128.45" fuel_abs="120480.15" electricity_abs="0.00"/>
    </tripinfo>
    <tripinfo id="flow_z2.3" depart="5.00" departLane="-E18_0" departPos="5.10" departSpeed="11.06" departDelay="0.00" arrival="198.00" arrivalLane="-E15_1" arrivalPos="479.20" arrivalSpeed="13.80" duration="193.00" routeLength="1984.04" waitingTime="2.00" waitingCount="1" stopTime="0.00" timeLoss="54.13" rerouteNo="0" devices="tripinfo_flow_z2.3 emissions_flow_z2.3" vType="Car" speedFactor="1.05" vaporized="">
        <emissions CO_abs="2207.98" CO2_abs="416481.00" HC_abs="14.72" PMx_abs="40.78" NOx_abs="144.39" fuel_abs="135017.70" electricity_abs="0.00"/>
    </tripinfo>
    <tripinfo id="flow_z3.17" depart="30.00" departLane="-E28_1" departPos="5.10" departSpeed="5.98" departDelay="1.68" arrival="198.00" arrivalLane="-E29_1" arrivalPos="266.06" arrivalSpeed="14.55" duration="168.00" routeLength="1186.43" waitingTime="45.00" waitingCount="1" stopTime="0.00" timeLoss="89.18" rerouteNo="0" devices="tripinfo_flow_z3.17 emissions_flow_z3.17" vType="Car" speedFactor="1.11" vaporized="">
        <emissions CO_abs="1647.93" CO2_abs="369531.68" HC_abs="10.95" PMx_abs="25.44" NOx_abs="129.44" fuel_abs="119797.48" electricity_abs="0.00"/>
    </tripinfo>
    <tripinfo id="flow_z2.4" depart="7.00" departLane="-E18_0" departPos="5.10" departSpeed="12.19" departDelay="0.34" arrival="199.00" arrivalLane="-E15_1" arrivalPos="479.20" arrivalSpeed="14.45" duration="192.00" routeLength="1984.04" waitingTime="1.00" waitingCount="1" stopTime="0.00" timeLoss="55.29" rerouteNo="0" devices="tripinfo_flow_z2.4 emissions_flow_z2.4" vType="Car" speedFactor="1.05" vaporized="">
        <emissions CO_abs="2358.97" CO2_abs="427017.61" HC_abs="15.73" PMx_abs="40.52" NOx_abs="147.49" fuel_abs="138433.29" electricity_abs="0.00"/>
    </tripinfo>
    <tripinfo id="flow_z2.5" depart="9.00" departLane="-E18_0" departPos="5.10" departSpeed="14.16" departDelay="0.67" arrival="201.00" arrivalLane="-E15_1" arrivalPos="479.20" arrivalSpeed="13.34" duration="192.00" routeLength="1988.38" waitingTime="1.00" waitingCount="1" stopTime="0.00" timeLoss="49.90" rerouteNo="0" devices="tripinfo_flow_z2.5 emissions_flow_z2.5" vType="Car" speedFactor="1.02" vaporized="">
        <emissions CO_abs="2417.91" CO2_abs="440043.98" HC_abs="16.09" PMx_abs="40.39" NOx_abs="150.10" fuel_abs="142656.21" electricity_abs="0.00"/>
    </tripinfo>
    <tripinfo id="flow_z3.10" depart="17.00" departLane="-E28_1" departPos="5.10" departSpeed="7.25" departDelay="0.34" arrival="202.00" arrivalLane="-E29_1" arrivalPos="266.06" arrivalSpeed="14.04" duration="185.00" routeLength="1186.43" waitingTime="55.00" waitingCount="1" stopTime="0.00" timeLoss="99.65" rerouteNo="0" devices="tripinfo_flow_z3.10 emissions_flow_z3.10" vType="Car" speedFactor="1.02" vaporized="">
        <emissions CO_abs="1521.13" CO2_abs="392430.48" HC_abs="10.10" PMx_abs="25.12" NOx_abs="137.55" fuel_abs="127221.17" electricity_abs="0.00"/>
    </tripinfo>
    <tripinfo id="3" depart="6.00" departLane="E37_0" departPos="5.10" departSpeed="0.00" departDelay="0.00" arrival="203.00" arrivalLane="-E14_1" arrivalPos="279.20" arrivalSpeed="14.45" duration="197.00" routeLength="1837.99" waitingTime="47.00" waitingCount="1" stopTime="0.00" timeLoss="68.71" rerouteNo="0" devices="tripinfo_3 emissions_3" vType="Car" speedFactor="1.06" vaporized="">
        <emissions CO_abs="2516.73" CO2_abs="476361.39" HC_abs="16.83" PMx_abs="43.09" NOx_abs="170.14" fuel_abs="154430.53" electricity_abs="0.00"/>
    </tripinfo>
    <tripinfo id="flow_z2.2" depart="4.00" departLane="-E18_0" departPos="5.10" departSpeed="13.97" departDelay="0.67" arrival="204.00" arrivalLane="-E15_1" arrivalPos="479.20" arrivalSpeed="6.05" duration="200.00" routeLength="1988.38" waitingTime="2.00" waitingCount="1" stopTime="0.00" timeLoss="55.97" rerouteNo="0" devices="tripinfo_flow_z2.2 emissions_flow_z2.2" vType="Car" speedFactor="1.01" vaporized="">
        <emissions CO_abs="1975.85" CO2_abs="418787.15" HC_abs="13.18" PMx_abs="40.12" NOx_abs="142.67" fuel_abs="135765.33" electricity_abs="0.00"/>
    </tripinfo>
    <tripinfo id="flow_z3.11" depart="19.00" departLane="-E28_1" departPos="5.10" departSpeed="7.56" departDelay="0.67" arrival="204.00" arrivalLane="-E29_1" arrivalPos="266.06" arrivalSpeed="14.62" duration="185.00" routeLength="1186.43" waitingTime="56.00" waitingCount="2" stopTime="0.00" timeLoss="105.48" rerouteNo="0" devices="tripinfo_flow_z3.11 emissions_flow_z3.11" vType="Car" speedFactor="1.10" vaporized="">
        <emissions CO_abs="1720.84" CO2_abs="405341.59" HC_abs="11.41" PMx_abs="25.02" NOx_abs="141.85" fuel_abs="131406.68" electricity_abs="0.00"/>
    </tripinfo>
    <tripinfo id="flow_z2.6" depart="10.00" departLane="-E18_0" departPos="5.10" departSpeed="11.31" departDelay="0.00" arrival="206.00" arrivalLane="-E15_0" arrivalPos="479.20" arrivalSpeed="12.61" duration="196.00" routeLength="1988.38" waitingTime="0.00" waitingCount="0" stopTime="0.00" timeLoss="38.14" rerouteNo="0" devices="tripinfo_flow_z2.6 emissions_flow_z2.6" vType="Car" speedFactor="0.92" vaporized="">
        <emissions CO_abs="1775.22" CO2_abs="397757.29" HC_abs="11.86" PMx_abs="40.87" NOx_abs="136.66" fuel_abs="128947.89" electricity_abs="0.00"/>
    </tripinfo>
    <tripinfo id="flow_z2.10" depart="17.00" departLane="-E18_0" departPos="5.10" departSpeed="9.76" departDelay="0.34" arrival="206.00" arrivalLane="-E15_1" arrivalPos="479.20" arrivalSpeed="13.06" duration="189.00" routeLength="1988.38" waitingTime="0.00" waitingCount="0" stopTime="0.00" timeLoss="39.12" rerouteNo="0" devices="tripinfo_flow_z2.10 emissions_flow_z2.10" vType="Car" speedFactor="0.97" vaporized="">
        <emissions CO_abs="2018.77" CO2_abs="400263.63" HC_abs="13.48" PMx_abs="40.43" NOx_abs="137.23" fuel_abs="129760.22" electricity_abs="0.00"/>
    </tripinfo>
    <tripinfo id="49" depart="98.00" departLane="E7_0" departPos="5.10" departSpeed="0.00" departDelay="0.00" arrival="209.00" arrivalLane="E34_0" arrivalPos="266.06" arrivalSpeed="9.98" duration="111.00" routeLength="1101.24" waitingTime="0.00" waitingCount="0" stopTime="0.00" timeLoss="10.52" rerouteNo="0" devices="tripinfo_49 emissions_49" vType="Car" speedFactor="0.81" vaporized="">
        <emissions CO_abs="877.14" CO2_abs="220375.32" HC_abs="5.85" PMx_abs="22.44" NOx_abs="75.10" fuel_abs="71442.96" electricity_abs="0.00"/>
    </tripinfo>
    <tripinfo id="flow_z3.12" depart="21.00" departLane="-E28_1" departPos="5.10" departSpeed="8.33" departDelay="1.01" arrival="209.00" arrivalLane="-E29_1" arrivalPos="266.06" arrivalSpeed="12.14" duration="188.00" routeLength="1186.43" waitingTime="55.00" waitingCount="1" stopTime="0.00" timeLoss="95.40" rerouteNo="0" devices="tripinfo_flow_z3.12 emissions_flow_z3.12" vType="Car" speedFactor="0.94" vaporized="">
        <emissions CO_abs="1441.02" CO2_abs="384461.37" HC_abs="9.56" PMx_abs="23.44" NOx_abs="132.92" fuel_abs="124637.62" electricity_abs="0.00"/>
    </tripinfo>
    <tripinfo id="flow_z3.15" depart="26.00" departLane="-E28_1" departPos="5.10" departSpeed="6.40" departDelay="1.01" arrival="209.00" arrivalLane="-E29_0" arrivalPos="266.06" arrivalSpeed="8.33" duration="183.00" routeLength="1186.43" waitingTime="48.00" waitingCount="2" stopTime="0.00" timeLoss="101.76" rerouteNo="0" devices="tripinfo_flow_z3.15 emissions_flow_z3.15" vType="Car" speedFactor="1.07" vaporized="">
        <emissions CO_abs="932.67" CO2_abs="345951.95" HC_abs="6.23" PMx_abs="27.57" NOx_abs="124.94" fuel_abs="112154.17" electricity_abs="0.00"/>
    </tripinfo>
    <tripinfo id="flow_z2.7" depart="12.00" departLane="-E18_0" departPos="5.10" departSpeed="9.59" departDelay="0.34" arrival="211.00" arrivalLane="-E15_0" arrivalPos="479.20" arrivalSpeed="12.93" duration="199.00" routeLength="1984.04" waitingTime="0.00" waitingCount="0" stopTime="0.00" timeLoss="43.39" rerouteNo="0" devices="tripinfo_flow_z2.7 emissions_flow_z2.7" vType="Car" speedFactor="0.93" vaporized="">
        <emissions CO_abs="1759.10" CO2_abs="396295.39" HC_abs="11.77" PMx_abs="41.50" NOx_abs="137.52" fuel_abs="128474.12" electricity_abs="0.00"/>
    </tripinfo>
    <tripinfo id="flow_z2.9" depart="15.00" departLane="-E18_0" departPos="5.10" departSpeed="8.06" departDelay="0.01" arrival="212.00" arrivalLane="-E15_1" arrivalPos="479.20" arrivalSpeed="13.96" duration="197.00" routeLength="1984.04" waitingTime="0.00" waitingCount="0" stopTime="0.00" timeLoss="62.69" rerouteNo="0" devices="tripinfo_flow_z2.9 emissions_flow_z2.9" vType="Car" speedFactor="1.08" vaporized="">
        <emissions CO_abs="2346.65" CO2_abs="415005.19" HC_abs="15.63" PMx_abs="36.96" NOx_abs="141.68" fuel_abs="134538.78" electricity_abs="0.00"/>
    </tripinfo>
    <tripinfo id="flow_z3.26" depart="49.00" departLane="-E28_1" departPos="5.10" departSpeed="5.54" departDelay="5.68" arrival="213.00" arrivalLane="-E29_0" arrivalPos="266.06" arrivalSpeed="12.13" duration="164.00" routeLength="1186.43" waitingTime="36.00" waitingCount="1" stopTime="0.00" timeLoss="64.51" rerouteNo="0" devices="tripinfo_flow_z3.26 emissions_flow_z3.26" vType="Car" speedFactor="0.88" vaporized="">
        <emissions CO_abs="1203.25" CO2_abs="328385.46" HC_abs="8.00" PMx_abs="23.75" NOx_abs="113.59" fuel_abs="106458.62" electricity_abs="0.00"/>
    </tripinfo>
    <tripinfo id="flow_z2.8" depart="14.00" departLane="-E18_0" departPos="5.10" departSpeed="11.12" departDelay="0.67" arrival="215.00" arrivalLane="-E15_0" arrivalPos="479.20" arrivalSpeed="13.06" duration="201.00" routeLength="1984.04" waitingTime="0.00" waitingCount="0" stopTime="0.00" timeLoss="57.77" rerouteNo="0" devices="tripinfo_flow_z2.8 emissions_flow_z2.8" vType="Car" speedFactor="1.01" vaporized="">
        <emissions CO_abs="1983.11" CO2_abs="403048.82" HC_abs="13.23" PMx_abs="38.99" NOx_abs="138.09" fuel_abs="130663.15" electricity_abs="0.00"/>
    </tripinfo>
    <tripinfo id="flow_z3.25" depart="47.00" departLane="-E28_1" departPos="5.10" departSpeed="6.10" departDelay="5.35" arrival="216.00" arrivalLane="-E29_0" arrivalPos="266.06" arrivalSpeed="11.36" duration="169.00" routeLength="1186.43" waitingTime="35.00" waitingCount="1" stopTime="0.00" timeLoss="69.09" rerouteNo="0" devices="tripinfo_flow_z3.25 emissions_flow_z3.25" vType="Car" speedFactor="0.87" vaporized="">
        <emissions CO_abs="1270.39" CO2_abs="342606.70" HC_abs="8.43" PMx_abs="23.70" NOx_abs="117.42" fuel_abs="111068.83" electricity_abs="0.00"/>
    </tripinfo>
    <tripinfo id="flow_z3.29" depart="55.00" departLane="-E28_1" departPos="5.10" departSpeed="6.12" departDelay="6.69" arrival="216.00" arrivalLane="-E29_1" arrivalPos="266.06" arrivalSpeed="17.43" duration="161.00" routeLength="1186.43" waitingTime="32.00" waitingCount="1" stopTime="0.00" timeLoss="92.23" rerouteNo="0" devices="tripinfo_flow_z3.29 emissions_flow_z3.29" vType="Car" speedFactor="1.26" vaporized="">
        <emissions CO_abs="1912.18" CO2_abs="382475.97" HC_abs="12.67" PMx_abs="24.70" NOx_abs="131.94" fuel_abs="123993.52" electricity_abs="0.00"/>
    </tripinfo>
    <tripinfo id="68" depart="136.00" departLane="-E13_0" departPos="5.10" departSpeed="0.00" departDelay="0.00" arrival="222.00" arrivalLane="E27_0" arrivalPos="279.20" arrivalSpeed="8.33" duration="86.00" routeLength="772.65" waitingTime="0.00" waitingCount="0" stopTime="0.00" timeLoss="30.00" rerouteNo="0" devices="tripinfo_68 emissions_68" vType="Car" speedFactor="1.01" vaporized="">
        <emissions CO_abs="520.30" CO2_abs="174350.74" HC_abs="3.49" PMx_abs="18.56" NOx_abs="60.78" fuel_abs="56522.56" electricity_abs="0.00"/>
    </tripinfo>
    <tripinfo id="flow_z2.15" depart="25.00" departLane="-E18_0" departPos="5.10" departSpeed="9.45" departDelay="0.01" arrival="222.00" arrivalLane="-E15_0" arrivalPos="479.20" arrivalSpeed="13.54" duration="197.00" routeLength="1988.38" waitingTime="5.00" waitingCount="2" stopTime="0.00" timeLoss="55.58" rerouteNo="0" devices="tripinfo_flow_z2.15 emissions_flow_z2.15" vType="Car" speedFactor="1.03" vaporized="">
        <emissions CO_abs="2276.49" CO2_abs="438314.98" HC_abs="15.19" PMx_abs="41.84" NOx_abs="150.68" fuel_abs="142095.73" electricity_abs="0.00"/>
    </tripinfo>