<?xml version="1.0" encoding="UTF-8"?>

<!-- generated on 2026-05-30T17:29:12.900578+00:00 by Eclipse SUMO sumo 1.26.0
<sumoConfiguration xmlns:xsi="http://www.w3.org/2001/XMLSchema-instance" xsi:noNamespaceSchemaLocation="http://sumo.dlr.de/xsd/sumoConfiguration.xsd">

    <input>
        <net-file value="manhattan.net.xml"/>
        <route-files value="routes.rou.xml,background.rou.xml"/>
        <additional-files value="mosaic_types.add.xml"/>
    </input>

    <output>
        <tripinfo-output value="/home/netsim/opt/tpnpr/tripinfo.xml"/>
    </output>

    <time>
        <begin value="0"/>
        <end value="3600"/>
        <step-length value="1.00"/>
    </time>

    <processing>
        <ignore-route-errors value="true"/>
        <time-to-teleport value="0"/>
    </processing>

    <report>
        <verbose value="true"/>
        <no-step-log value="true"/>
    </report>

    <emissions>
        <device.emissions.probability value="1.0"/>
    </emissions>

    <traci_server>
        <remote-port value="44057"/>
    </traci_server>

    <random_number>
        <seed value="100000"/>
    </random_number>

</sumoConfiguration>
-->

<tripinfos xmlns:xsi="http://www.w3.org/2001/XMLSchema-instance" xsi:noNamespaceSchemaLocation="http://sumo.dlr.de/xsd/tripinfo_file.xsd">
    <tripinfo id="13" depart="26.00" departLane="-E15_0" departPos="5.10" departSpeed="0.00" departDelay="0.00" arrival="64.00" arrivalLane="-E15_0" arrivalPos="479.20" arrivalSpeed="13.89" duration="38.00" routeLength="474.10" waitingTime="0.00" waitingCount="0" stopTime="0.00" timeLoss="5.30" rerouteNo="0" devices="tripinfo_13 emissions_13" vType="Car" speedFactor="1.06" vaporized="">
        <emissions CO_abs="594.64" CO2_abs="103721.87" HC_abs="3.98" PMx_abs="11.38" NOx_abs="35.62" fuel_abs="33625.20" electricity_abs="0.00"/>
    </tripinfo>
    <tripinfo id="22" depart="44.00" departLane="-E14_0" departPos="5.10" departSpeed="0.00" departDelay="0.00" arrival="88.00" arrivalLane="-E25_0" arrivalPos="279.20" arrivalSpeed="13.77" duration="44.00" routeLength="574.10" waitingTime="0.00" waitingCount="0" stopTime="0.00" timeLoss="5.40" rerouteNo="0" devices="tripinfo_22 emissions_22" vType="Car" speedFactor="1.08" vaporized="">
        <emissions CO_abs="765.18" CO2_abs="122611.21" HC_abs="5.12" PMx_abs="13.65" NOx_abs="42.57" fuel_abs="39748.86" electricity_abs="0.00"/>
    </tripinfo>
    <tripinfo id="flow_z3.0" depart="0.00" departLane="-E28_1" departPos="5.10" departSpeed="12.68" departDelay="0.00" arrival="104.00" arrivalLane="-E29_0" arrivalPos="266.06" arrivalSpeed="12.37" duration="104.00" routeLength="1186.43" waitingTime="0.00" waitingCount="0" stopTime="0.00" timeLoss="7.90" rerouteNo="0" devices="tripinfo_flow_z3.0 emissions_flow_z3.0" vType="Car" speedFactor="0.91" vaporized="">
        <emissions CO_abs="955.85" CO2_abs="195112.18" HC_abs="6.41" PMx_abs="23.43" NOx_abs="68.75" fuel_abs="63253.11" electricity_abs="0.00"/>
    </tripinfo>
    <tripinfo id="flow_z3.2" depart="2.00" departLane="-E28_1" departPos="5.10" departSpeed="5.68" departDelay="0.33" arrival="104.00" arrivalLane="-E29_1" arrivalPos="266.06" arrivalSpeed="12.99" duration="102.00" routeLength="1186.43" waitingTime="0.00" waitingCount="0" stopTime="0.00" timeLoss="13.71" rerouteNo="0" devices="tripinfo_flow_z3.2 emissions_flow_z3.2" vType="Car" speedFactor="0.99" vaporized="">
        <emissions CO_abs="1358.10" CO2_abs="231793.28" HC_abs="9.06" PMx_abs="24.22" NOx_abs="80.76" fuel_abs="75144.37" electricity_abs="0.00"/>
    </tripinfo>
    <tripinfo id="flow_z3.1" depart="1.00" departLane="-E28_1" departPos="5.10" departSpeed="10.10" departDelay="0.17" arrival="109.00" arrivalLane="-E29_0" arrivalPos="266.06" arrivalSpeed="11.55" duration="108.00" routeLength="1186.43" waitingTime="0.00" waitingCount="0" stopTime="0.00" timeLoss="11.22" rerouteNo="0" devices="tripinfo_flow_z3.1 emissions_flow_z3.1" vType="Car" speedFactor="0.90" vaporized="">
        <emissions CO_abs="1197.07" CO2_abs="228538.58" HC_abs="7.98" PMx_abs="24.02" NOx_abs="79.58" fuel_abs="74089.36" electricity_abs="0.00"/>
    </tripinfo>
    <tripinfo id="flow_z3.3" depart="4.00" departLane="-E28_1" departPos="5.10" departSpeed="5.55" departDelay="1.50" arrival="109.00" arrivalLane="-E29_1" arrivalPos="266.06" arrivalSpeed="13.55" duration="105.00" routeLength="1186.43" waitingTime="0.00" waitingCount="0" stopTime="0.00" timeLoss="16.99" rerouteNo="0" devices="tripinfo_flow_z3.3 emissions_flow_z3.3" vType="Car" speedFactor="0.99" vaporized="">
        <emissions CO_abs="1427.14" CO2_abs="243424.54" HC_abs="9.50" PMx_abs="24.20" NOx_abs="84.26" fuel_abs="78915.00" electricity_abs="0.00"/>
    </tripinfo>
    <tripinfo id="flow_z3.4" depart="6.00" departLane="-E28_1" departPos="5.10" departSpeed="4.72" departDelay="2.67" arrival="112.00" arrivalLane="-E29_0" arrivalPos="266.06" arrivalSpeed="12.83" duration="106.00" routeLength="1186.43" waitingTime="0.00" waitingCount="0" stopTime="0.00" timeLoss="19.10" rerouteNo="0" devices="tripinfo_flow_z3.4 emissions_flow_z3.4" vType="Car" speedFactor="1.01" vaporized="">
        <emissions CO_abs="1463.81" CO2_abs="248647.16" HC_abs="9.74" PMx_abs="24.27" NOx_abs="86.15" fuel_abs="80608.09" electricity_abs="0.00"/>
    </tripinfo>
    <tripinfo id="flow_z3.6" depart="10.00" departLane="-E28_1" departPos="5.10" departSpeed="2.18" departDelay="5.00" arrival="114.00" arrivalLane="-E29_1" arrivalPos="266.06" arrivalSpeed="14.08" duration="104.00" routeLength="1186.43" waitingTime="0.00" waitingCount="0" stopTime="0.00" timeLoss="25.36" rerouteNo="0" devices="tripinfo_flow_z3.6 emissions_flow_z3.6" vType="Car" speedFactor="1.10" vaporized="">
        <emissions CO_abs="1692.14" CO2_abs="276234.98" HC_abs="11.27" PMx_abs="25.80" NOx_abs="94.75" fuel_abs="89551.50" electricity_abs="0.00"/>
    </tripinfo>
    <tripinfo id="flow_z3.5" depart="8.00" departLane="-E28_1" departPos="5.10" departSpeed="3.73" departDelay="3.84" arrival="116.00" arrivalLane="-E29_0" arrivalPos="266.06" arrivalSpeed="12.26" duration="108.00" routeLength="1186.43" waitingTime="0.00" waitingCount="0" stopTime="0.00" timeLoss="12.70" rerouteNo="0" devices="tripinfo_flow_z3.5 emissions_flow_z3.5" vType="Car" speedFactor="0.92" vaporized="">
        <emissions CO_abs="1212.34" CO2_abs="227580.02" HC_abs="8.09" PMx_abs="23.22" NOx_abs="78.23" fuel_abs="73778.48" electricity_abs="0.00"/>
    </tripinfo>
    <tripinfo id="21" depart="42.00" departLane="-E25_0" departPos="5.10" departSpeed="0.00" departDelay="0.00" arrival="121.00" arrivalLane="-E3_0" arrivalPos="483.20" arrivalSpeed="14.86" duration="79.00" routeLength="1079.36" waitingTime="0.00" waitingCount="0" stopTime="0.00" timeLoss="7.43" rerouteNo="0" devices="tripinfo_21 emissions_21" vType="Car" speedFactor="1.10" vaporized="">
        <emissions CO_abs="1345.62" CO2_abs="201735.78" HC_abs="9.01" PMx_abs="23.62" NOx_abs="71.35" fuel_abs="65400.04" electricity_abs="0.00"/>
    </tripinfo>
    <tripinfo id="30" depart="60.00" departLane="E9_0" departPos="5.10" departSpeed="0.00" departDelay="0.00" arrival="136.00" arrivalLane="E19_0" arrivalPos="283.20" arrivalSpeed="14.85" duration="76.00" routeLength="878.10" waitingTime="4.00" waitingCount="1" stopTime="0.00" timeLoss="16.35" rerouteNo="0" devices="tripinfo_30 emissions_30" vType="Car" speedFactor="1.08" vaporized="">
        <emissions CO_abs="1212.34" CO2_abs="204372.92" HC_abs="8.11" PMx_abs="20.60" NOx_abs="70.52" fuel_abs="66254.85" electricity_abs="0.00"/>
    </tripinfo>
    <tripinfo id="4" depart="8.00" departLane="-E39_0" departPos="5.10" departSpeed="0.00" departDelay="0.00" arrival="142.00" arrivalLane="-E10_0" arrivalPos="479.20" arrivalSpeed="11.81" duration="134.00" routeLength="1552.66" waitingTime="0.00" waitingCount="0" stopTime="0.00" timeLoss="12.24" rerouteNo="0" devices="tripinfo_4 emissions_4" vType="Car" speedFactor="0.93" vaporized="">
        <emissions CO_abs="1487.43" CO2_abs="288741.28" HC_abs="9.95" PMx_abs="32.03" NOx_abs="100.23" fuel_abs="93606.30" electricity_abs="0.00"/>
    </tripinfo>
    <tripinfo id="12" depart="24.00" departLane="E6_0" departPos="5.10" departSpeed="0.00" departDelay="0.00" arrival="147.00" arrivalLane="-E32_0" arrivalPos="266.06" arrivalSpeed="11.05" duration="123.00" routeLength="1239.52" waitingTime="0.00" waitingCount="0" stopTime="0.00" timeLoss="11.40" rerouteNo="0" devices="tripinfo_12 emissions_12" vType="Car" speedFactor="0.81" vaporized="">
        <emissions CO_abs="944.26" CO2_abs="237643.62" HC_abs="6.31" PMx_abs="25.53" NOx_abs="81.75" fuel_abs="77041.22" electricity_abs="0.00"/>
    </tripinfo>
    <tripinfo id="1" depart="2.00" departLane="-E29_0" departPos="5.10" departSpeed="0.00" departDelay="0.00" arrival="153.00" arrivalLane="-E24_0" arrivalPos="283.20" arrivalSpeed="14.26" duration="151.00" routeLength="1942.97" waitingTime="0.00" waitingCount="0" stopTime="0.00" timeLoss="15.08" rerouteNo="0" devices="tripinfo_1 emissions_1" vType="Car" speedFactor="1.04" vaporized="">
        <emissions CO_abs="2202.98" CO2_abs="361480.31" HC_abs="14.77" PMx_abs="42.40" NOx_abs="127.10" fuel_abs="117187.24" electricity_abs="0.00"/>
    </tripinfo>
    <tripinfo id="23" depart="46.00" departLane="-E16_0" departPos="5.10" departSpeed="0.00" departDelay="0.00" arrival="160.00" arrivalLane="-E29_0" arrivalPos="266.06" arrivalSpeed="14.34" duration="114.00" routeLength="1384.98" waitingTime="2.00" waitingCount="1" stopTime="0.00" timeLoss="18.05" rerouteNo="0" devices="tripinfo_23 emissions_23" vType="Car" speedFactor="1.07" vaporized="">
        <emissions CO_abs="1846.45" CO2_abs="300519.35" HC_abs="12.36" PMx_abs="31.78" NOx_abs="105.00" fuel_abs="97424.26" electricity_abs="0.00"/>
    </tripinfo>
    <tripinfo id="48" depart="96.00" departLane="E9_0" departPos="5.10" departSpeed="0.00" departDelay="0.00" arrival="161.00" arrivalLane="E10_0" arrivalPos="479.20" arrivalSpeed="13.32" duration="65.00" routeLength="772.65" waitingTime="0.00" waitingCount="0" stopTime="0.00" timeLoss="8.01" rerouteNo="0" devices="tripinfo_48 emissions_48" vType="Car" speedFactor="1.00" vaporized="">
        <emissions CO_abs="932.64" CO2_abs="167618.38" HC_abs="6.23" PMx_abs="17.32" NOx_abs="57.15" fuel_abs="54339.57" electricity_abs="0.00"/>
    </tripinfo>
    <tripinfo id="flow_z1.2" depart="2.00" departLane="-E1_0" departPos="5.10" departSpeed="7.75" departDelay="0.33" arrival="164.00" arrivalLane="E19_0" arrivalPos="283.20" arrivalSpeed="14.80" duration="162.00" routeLength="2181.19" waitingTime="0.00" waitingCount="0" stopTime="0.00" timeLoss="23.21" rerouteNo="0" devices="tripinfo_flow_z1.2 emissions_flow_z1.2" vType="Car" speedFactor="1.14" vaporized="">
        <emissions CO_abs="2748.56" CO2_abs="395947.03" HC_abs="18.40" PMx_abs="46.94" NOx_abs="142.29" fuel_abs="128360.93" electricity_abs="0.00"/>
    </tripinfo>
    <tripinfo id="flow_z1.0" depart="0.00" departLane="-E1_0" departPos="5.10" departSpeed="13.81" departDelay="0.00" arrival="168.00" arrivalLane="E19_0" arrivalPos="283.20" arrivalSpeed="13.21" duration="168.00" routeLength="2181.19" waitingTime="0.00" waitingCount="0" stopTime="0.00" timeLoss="9.00" rerouteNo="0" devices="tripinfo_flow_z1.0 emissions_flow_z1.0" vType="Car" speedFactor="0.99" vaporized="">
        <emissions CO_abs="2024.45" CO2_abs="339029.67" HC_abs="13.59" PMx_abs="43.92" NOx_abs="121.97" fuel_abs="109909.44" electricity_abs="0.00"/>
    </tripinfo>
    <tripinfo id="flow_z3.8" depart="15.00" departLane="-E28_1" departPos="5.10" departSpeed="0.86" departDelay="8.34" arrival="173.00" arrivalLane="-E29_0" arrivalPos="266.06" arrivalSpeed="14.00" duration="158.00" routeLength="1186.43" waitingTime="56.00" waitingCount="2" stopTime="0.00" timeLoss="76.46" rerouteNo="0" devices="tripinfo_flow_z3.8 emissions_flow_z3.8" vType="Car" speedFactor="1.07" vaporized="">
        <emissions CO_abs="1562.01" CO2_abs="352380.58" HC_abs="10.44" PMx_abs="27.54" NOx_abs="126.04" fuel_abs="114237.64" electricity_abs="0.00"/>
    </tripinfo>
    <tripinfo id="flow_z1.3" depart="4.00" departLane="-E1_0" departPos="5.10" departSpeed="8.02" departDelay="1.50" arrival="174.00" arrivalLane="E19_0" arrivalPos="283.20" arrivalSpeed="13.79" duration="170.00" routeLength="2181.19" waitingTime="0.00" waitingCount="0" stopTime="0.00" timeLoss="16.02" rerouteNo="0" devices="tripinfo_flow_z1.3 emissions_flow_z1.3" vType="Car" speedFactor="1.03" vaporized="">
        <emissions CO_abs="2452.87" CO2_abs="382853.49" HC_abs="16.40" PMx_abs="44.38" NOx_abs="136.67" fuel_abs="124116.27" electricity_abs="0.00"/>
    </tripinfo>
    <tripinfo id="flow_z1.1" depart="1.00" departLane="-E1_0" departPos="5.10" departSpeed="10.93" departDelay="0.17" arrival="176.00" arrivalLane="E19_0" arrivalPos="283.20" arrivalSpeed="12.39" duration="175.00" routeLength="2181.19" waitingTime="0.00" waitingCount="0" stopTime="0.00" timeLoss="9.81" rerouteNo="0" devices="tripinfo_flow_z1.1 emissions_flow_z1.1" vType="Car" speedFactor="0.96" vaporized="">
        <emissions CO_abs="1949.93" CO2_abs="352952.64" HC_abs="13.08" PMx_abs="45.14" NOx_abs="126.39" fuel_abs="114423.18" electricity_abs="0.00"/>
    </tripinfo>
    <tripinfo id="16" depart="32.00" departLane="E10_0" departPos="5.10" departSpeed="0.00" departDelay="0.00" arrival="177.00" arrivalLane="E7_0" arrivalPos="466.06" arrivalSpeed="13.70" duration="145.00" routeLength="1801.77" waitingTime="0.00" waitingCount="0" stopTime="0.00" timeLoss="19.10" rerouteNo="0" devices="tripinfo_16 emissions_16" vType="Car" speedFactor="1.05" vaporized="">
        <emissions CO_abs="2255.04" CO2_abs="376201.68" HC_abs="15.08" PMx_abs="41.50" NOx_abs="130.83" fuel_abs="121959.58" electricity_abs="0.00"/>
    </tripinfo>
    <tripinfo id="49" depart="98.00" departLane="E7_0" departPos="5.10" departSpeed="0.00" departDelay="0.00" arrival="182.00" arrivalLane="E34_0" arrivalPos="266.06" arrivalSpeed="8.33" duration="84.00" routeLength="1101.24" waitingTime="0.00" waitingCount="0" stopTime="0.00" timeLoss="12.69" rerouteNo="0" devices="tripinfo_49 emissions_49" vType="Car" speedFactor="1.13" vaporized="">
        <emissions CO_abs="1317.13" CO2_abs="206954.48" HC_abs="8.83" PMx_abs="24.62" NOx_abs="73.38" fuel_abs="67091.95" electricity_abs="0.00"/>
    </tripinfo>
    <tripinfo id="flow_z3.13" depart="27.00" departLane="-E28_1" departPos="5.10" departSpeed="6.97" departDelay="16.17" arrival="188.00" arrivalLane="-E29_0" arrivalPos="266.06" arrivalSpeed="12.15" duration="161.00" routeLength="1186.43" waitingTime="50.00" waitingCount="1" stopTime="0.00" timeLoss="63.25" rerouteNo="0" devices="tripinfo_flow_z3.13 emissions_flow_z3.13" vType="Car" speedFactor="0.90" vaporized="">
        <emissions CO_abs="1209.38" CO2_abs="318449.66" HC_abs="8.06" PMx_abs="24.46" NOx_abs="113.91" fuel_abs="103237.80" electricity_abs="0.00"/>
    </tripinfo>
    <tripinfo id="flow_z3.11" depart="23.00" departLane="-E28_1" departPos="5.10" departSpeed="5.86" departDelay="13.84" arrival="189.00" arrivalLane="-E29_1" arrivalPos="266.06" arrivalSpeed="14.64" duration="166.00" routeLength="1186.43" waitingTime="49.00" waitingCount="1" stopTime="0.00" timeLoss="83.56" rerouteNo="0" devices="tripinfo_flow_z3.11 emissions_flow_z3.11" vType="Car" speedFactor="1.06" vaporized="">
        <emissions CO_abs="1626.98" CO2_abs="368554.99" HC_abs="10.82" PMx_abs="26.04" NOx_abs="129.61" fuel_abs="119480.96" electricity_abs="0.00"/>
    </tripinfo>
    <tripinfo id="flow_z3.7" depart="13.00" departLane="-E28_1" departPos="5.10" departSpeed="3.08" departDelay="7.17" arrival="190.00" arrivalLane="-E29_0" arrivalPos="266.06" arrivalSpeed="11.19" duration="177.00" routeLength="1186.43" waitingTime="61.00" waitingCount="1" stopTime="0.00" timeLoss="80.17" rerouteNo="0" devices="tripinfo_flow_z3.7 emissions_flow_z3.7" vType="Car" speedFactor="0.90" vaporized="">
        <emissions CO_abs="1205.86" CO2_abs="350532.25" HC_abs="8.04" PMx_abs="24.79" NOx_abs="124.97" fuel_abs="113638.73" electricity_abs="0.00"/>
    </tripinfo>
    <tripinfo id="flow_z2.3" depart="4.00" departLane="-E18_0" departPos="5.10" departSpeed="5.54" departDelay="1.50" arrival="192.00" arrivalLane="-E15_0" arrivalPos="479.20" arrivalSpeed="13.28" duration="188.00" routeLength="1984.04" waitingTime="11.00" waitingCount="1" stopTime="0.00" timeLoss="49.73" rerouteNo="0" devices="tripinfo_flow_z2.3 emissions_flow_z2.3" vType="Car" speedFactor="1.05" vaporized="">
        <emissions CO_abs="2343.69" CO2_abs="430973.26" HC_abs="15.63" PMx_abs="41.97" NOx_abs="150.90" fuel_abs="139715.97" electricity_abs="0.00"/>
    </tripinfo>
    <tripinfo id="18" depart="36.00" departLane="E32_0" departPos="5.10" departSpeed="0.00" departDelay="0.00" arrival="193.00" arrivalLane="E17_0" arrivalPos="465.43" arrivalSpeed="13.19" duration="157.00" routeLength="1839.24" waitingTime="0.00" waitingCount="0" stopTime="0.00" timeLoss="16.80" rerouteNo="0" devices="tripinfo_18 emissions_18" vType="Car" speedFactor="0.96" vaporized="">
        <emissions CO_abs="2137.28" CO2_abs="384231.55" HC_abs="14.27" PMx_abs="40.83" NOx_abs="132.58" fuel_abs="124562.83" electricity_abs="0.00"/>
    </tripinfo>
    <tripinfo id="flow_z2.2" depart="2.00" departLane="-E18_0" departPos="5.10" departSpeed="5.27" departDelay="0.33" arrival="195.00" arrivalLane="-E15_0" arrivalPos="479.20" arrivalSpeed="13.17" duration="193.00" routeLength="1988.38" waitingTime="11.00" waitingCount="1" stopTime="0.00" timeLoss="49.27" rerouteNo="0" devices="tripinfo_flow_z2.2 emissions_flow_z2.2" vType="Car" speedFactor="1.01" vaporized="">
        <emissions CO_abs="2352.07" CO2_abs="447356.55" HC_abs="15.68" PMx_abs="41.68" NOx_abs="153.74" fuel_abs="145027.04" electricity_abs="0.00"/>
    </tripinfo>
    <tripinfo id="flow_z2.5" depart="8.00" departLane="-E18_0" departPos="5.10" departSpeed="5.48" departDelay="3.84" arrival="198.00" arrivalLane="-E15_1" arrivalPos="479.20" arrivalSpeed="14.15" duration="190.00" routeLength="1984.04" waitingTime="5.00" waitingCount="2" stopTime="0.00" timeLoss="53.50" rerouteNo="0" devices="tripinfo_flow_z2.5 emissions_flow_z2.5" vType="Car" speedFactor="1.06" vaporized="">
        <emissions CO_abs="2635.54" CO2_abs="460333.30" HC_abs="17.55" PMx_abs="41.07" NOx_abs="159.15" fuel_abs="149233.61" electricity_abs="0.00"/>
    </tripinfo>
    <tripinfo id="flow_z2.0" depart="0.00" departLane="-E18_0" departPos="5.10" departSpeed="12.79" departDelay="0.00" arrival="199.00" arrivalLane="-E15_0" arrivalPos="479.20" arrivalSpeed="11.51" duration="199.00" routeLength="1988.38" waitingTime="13.00" waitingCount="1" stopTime="0.00" timeLoss="41.65" rerouteNo="0" devices="tripinfo_flow_z2.0 emissions_flow_z2.0" vType="Car" speedFactor="0.92" vaporized="">
        <emissions CO_abs="1642.71" CO2_abs="377666.37" HC_abs="10.98" PMx_abs="39.04" NOx_abs="132.31" fuel_abs="122434.95" electricity_abs="0.00"/>
    </tripinfo>
    <tripinfo id="3" depart="6.00" departLane="E37_0" departPos="5.10" departSpeed="0.00" departDelay="0.00" arrival="201.00" arrivalLane="-E14_1" arrivalPos="279.20" arrivalSpeed="14.56" duration="195.00" routeLength="1837.99" waitingTime="47.00" waitingCount="1" stopTime="0.00" timeLoss="67.06" rerouteNo="0" devices="tripinfo_3 emissions_3" vType="Car" speedFactor="1.06" vaporized="">
        <emissions CO_abs="2376.41" CO2_abs="458925.18" HC_abs="15.90" PMx_abs="41.91" NOx_abs="164.05" fuel_abs="148778.00" electricity_abs="0.00"/>
    </tripinfo>
    <tripinfo id="flow_z3.18" depart="38.00" departLane="-E28_1" departPos="5.10" departSpeed="4.76" departDelay="23.01" arrival="201.00" arrivalLane="-E29_1" arrivalPos="266.06" arrivalSpeed="14.02" duration="163.00" routeLength="1186.43" waitingTime="38.00" waitingCount="2" stopTime="0.00" timeLoss="79.46" rerouteNo="0" devices="tripinfo_flow_z3.18 emissions_flow_z3.18" vType="Car" speedFactor="1.04" vaporized="">
        <emissions CO_abs="1551.52" CO2_abs="356276.32" HC_abs="10.31" PMx_abs="25.17" NOx_abs="124.23" fuel_abs="115500.22" electricity_abs="0.00"/>
    </tripinfo>
    <tripinfo id="54" depart="108.00" departLane="-E6_0" departPos="5.10" departSpeed="0.00" departDelay="0.00" arrival="202.00" arrivalLane="E6_1" arrivalPos="466.06" arrivalSpeed="6.65" duration="94.00" routeLength="1043.03" waitingTime="0.00" waitingCount="0" stopTime="0.00" timeLoss="15.08" rerouteNo="0" devices="tripinfo_54 emissions_54" vType="Car" speedFactor="0.98" vaporized="">
        <emissions CO_abs="1284.30" CO2_abs="234611.22" HC_abs="8.55" PMx_abs="22.36" NOx_abs="79.72" fuel_abs="76057.71" electricity_abs="0.00"/>
    </tripinfo>
    <tripinfo id="flow_z2.6" depart="10.00" departLane="-E18_0" departPos="5.10" departSpeed="6.09" departDelay="5.00" arrival="202.00" arrivalLane="-E15_1" arrivalPos="479.20" arrivalSpeed="13.01" duration="192.00" routeLength="1988.38" waitingTime="3.00" waitingCount="1" stopTime="0.00" timeLoss="42.57" rerouteNo="0" devices="tripinfo_flow_z2.6 emissions_flow_z2.6" vType="Car" speedFactor="0.97" vaporized="">
        <emissions CO_abs="2273.04" CO2_abs="435328.24" HC_abs="15.15" PMx_abs="40.79" NOx_abs="148.63" fuel_abs="141127.51" electricity_abs="0.00"/>
    </tripinfo>
    <tripinfo id="flow_z3.9" depart="19.00" departLane="-E28_1" departPos="5.10" departSpeed="5.82" departDelay="11.50" arrival="202.00" arrivalLane="-E29_1" arrivalPos="266.06" arrivalSpeed="16.70" duration="183.00" routeLength="1186.43" waitingTime="55.00" waitingCount="2" stopTime="0.00" timeLoss="111.26" rerouteNo="0" devices="tripinfo_flow_z3.9 emissions_flow_z3.9" vType="Car" speedFactor="1.21" vaporized="">
        <emissions CO_abs="1583.59" CO2_abs="394840.72" HC_abs="10.52" PMx_abs="26.05" NOx_abs="138.87" fuel_abs="128002.57" electricity_abs="0.00"/>
    </tripinfo>
    <tripinfo id="flow_z2.9" depart="16.00" departLane="-E18_0" departPos="5.10" departSpeed="3.89" departDelay="8.50" arrival="203.00" arrivalLane="-E15_1" arrivalPos="479.20" arrivalSpeed="13.74" duration="187.00" routeLength="1984.04" waitingTime="0.00" waitingCount="0" stopTime="0.00" timeLoss="53.07" rerouteNo="0" devices="tripinfo_flow_z2.9 emissions_flow_z2.9" vType="Car" speedFactor="1.08" vaporized="">
        <emissions CO_abs="2266.84" CO2_abs="404113.33" HC_abs="15.08" PMx_abs="37.86" NOx_abs="139.34" fuel_abs="131008.11" electricity_abs="0.00"/>
    </tripinfo>
    <tripinfo id="flow_z2.4" depart="6.00" departLane="-E18_0" departPos="5.10" departSpeed="5.64" departDelay="2.67" arrival="204.00" arrivalLane="-E15_0" arrivalPos="479.20" arrivalSpeed="8.06" duration="198.00" routeLength="1988.38" waitingTime="10.00" waitingCount="2" stopTime="0.00" timeLoss="60.87" rerouteNo="0" devices="tripinfo_flow_z2.4 emissions_flow_z2.4" vType="Car" speedFactor="1.05" vaporized="">
        <emissions CO_abs="2509.17" CO2_abs="467007.42" HC_abs="16.71" PMx_abs="40.75" NOx_abs="159.45" fuel_abs="151397.34" electricity_abs="0.00"/>
    </tripinfo>
    <tripinfo id="flow_z2.11" depart="21.00" departLane="-E18_0" departPos="5.10" departSpeed="3.83" departDelay="11.84" arrival="205.00" arrivalLane="-E15_1" arrivalPos="479.20" arrivalSpeed="14.56" duration="184.00" routeLength="1984.04" waitingTime="0.00" waitingCount="0" stopTime="0.00" timeLoss="52.61" rerouteNo="0" devices="tripinfo_flow_z2.11 emissions_flow_z2.11" vType="Car" speedFactor="1.10" vaporized="">
        <emissions CO_abs="2587.26" CO2_abs="431615.30" HC_abs="17.21" PMx_abs="39.45" NOx_abs="148.55" fuel_abs="139923.68" electricity_abs="0.00"/>
    </tripinfo>
    <tripinfo id="flow_z3.10" depart="21.00" departLane="-E28_1" departPos="5.10" departSpeed="6.01" departDelay="12.67" arrival="206.00" arrivalLane="-E29_1" arrivalPos="266.06" arrivalSpeed="13.64" duration="185.00" routeLength="1186.43" waitingTime="54.00" waitingCount="1" stopTime="0.00" timeLoss="99.52" rerouteNo="0" devices="tripinfo_flow_z3.10 emissions_flow_z3.10" vType="Car" speedFactor="1.02" vaporized="">
        <emissions CO_abs="1378.98" CO2_abs="371700.19" HC_abs="9.16" PMx_abs="23.69" NOx_abs="129.60" fuel_abs="120500.73" electricity_abs="0.00"/>
    </tripinfo>
    <tripinfo id="flow_z2.12" depart="23.00" departLane="-E18_0" departPos="5.10" departSpeed="2.51" departDelay="13.00" arrival="206.00" arrivalLane="-E15_0" arrivalPos="479.20" arrivalSpeed="11.32" duration="183.00" routeLength="1984.04" waitingTime="0.00" waitingCount="0" stopTime="0.00" timeLoss="64.37" rerouteNo="0" devices="tripinfo_flow_z2.12 emissions_flow_z2.12" vType="Car" speedFactor="1.22" vaporized="">
        <emissions CO_abs="2754.64" CO2_abs="440345.78" HC_abs="18.31" PMx_abs="38.87" NOx_abs="152.38" fuel_abs="142753.88" electricity_abs="0.00"/>
    </tripinfo>
    <tripinfo id="flow_z2.16" depart="31.00" departLane="-E18_0" departPos="5.10" departSpeed="5.62" departDelay="17.67" arrival="207.00" arrivalLane="-E15_1" arrivalPos="479.20" arrivalSpeed="15.84" duration="176.00" routeLength="1984.04" waitingTime="1.00" waitingCount="1" stopTime="0.00" timeLoss="51.45" rerouteNo="0" devices="tripinfo_flow_z2.16 emissions_flow_z2.16" vType="Car" speedFactor="1.17" vaporized="">
        <emissions CO_abs="2610.94" CO2_abs="423193.57" HC_abs="17.41" PMx_abs="41.52" NOx_abs="147.71" fuel_abs="137193.54" electricity_abs="0.00"/>
    </tripinfo>
    <tripinfo id="flow_z2.10" depart="18.00" departLane="-E18_0" departPos="5.10" departSpeed="2.16" departDelay="9.67" arrival="211.00" arrivalLane="-E15_0" arrivalPos="479.20" arrivalSpeed="12.64" duration="193.00" routeLength="1988.38" waitingTime="0.00" waitingCount="0" stopTime="0.00" timeLoss="43.07" rerouteNo="0" devices="tripinfo_flow_z2.10 emissions_flow_z2.10" vType="Car" speedFactor="0.97" vaporized="">
        <emissions CO_abs="2046.31" CO2_abs="413389.45" HC_abs="13.65" PMx_abs="40.70" NOx_abs="141.48" fuel_abs="134015.49" electricity_abs="0.00"/>
    </tripinfo>
    <tripinfo id="flow_z3.17" depart="35.00" departLane="-E28_1" departPos="5.10" departSpeed="2.58" departDelay="20.84" arrival="211.00" arrivalLane="-E29_0" arrivalPos="266.06" arrivalSpeed="8.33" duration="176.00" routeLength="1186.43" waitingTime="41.00" waitingCount="1" stopTime="0.00" timeLoss="85.33" rerouteNo="0" devices="tripinfo_flow_z3.17 emissions_flow_z3.17" vType="Car" speedFactor="0.96" vaporized="">
        <emissions CO_abs="876.82" CO2_abs="343395.04" HC_abs="5.87" PMx_abs="29.09" NOx_abs="122.94" fuel_abs="111325.13" electricity_abs="0.00"/>
    </tripinfo>
    <tripinfo id="flow_z3.23" depart="48.00" departLane="-E28_1" departPos="5.10" departSpeed="5.07" departDelay="28.84" arrival="211.00" arrivalLane="-E29_1" arrivalPos="266.06" arrivalSpeed="13.34" duration="163.00" routeLength="1186.43" waitingTime="32.00" waitingCount="1" stopTime="0.00" timeLoss="78.18" rerouteNo="0" devices="tripinfo_flow_z3.23 emissions_flow_z3.23" vType="Car" speedFactor="1.03" vaporized="">
        <emissions CO_abs="1581.19" CO2_abs="357473.66" HC_abs="10.50" PMx_abs="24.53" NOx_abs="122.43" fuel_abs="115888.24" electricity_abs="0.00"/>
    </tripinfo>
    <tripinfo id="flow_z2.7" depart="12.00" departLane="-E18_0" departPos="5.10" departSpeed="5.93" departDelay="6.17" arrival="213.00" arrivalLane="-E15_0" arrivalPos="479.20" arrivalSpeed="12.46" duration="201.00" routeLength="1984.04" waitingTime="1.00" waitingCount="1" stopTime="0.00" timeLoss="46.22" rerouteNo="0" devices="tripinfo_flow_z2.7 emissions_flow_z2.7" vType="Car" speedFactor="0.93" vaporized="">
        <emissions CO_abs="1883.58" CO2_abs="414934.77" HC_abs="12.56" PMx_abs="40.15" NOx_abs="141.24" fuel_abs="134516.48" electricity_abs="0.00"/>
    </tripinfo>
    <tripinfo id="68" depart="136.00" departLane="-E13_0" departPos="5.10" departSpeed="0.00" departDelay="0.00" arrival="214.00" arrivalLane="E27_1" arrivalPos="279.20" arrivalSpeed="13.96" duration="78.00" routeLength="772.65" waitingTime="12.00" waitingCount="1" stopTime="0.00" timeLoss="24.16" rerouteNo="0" devices="tripinfo_68 emissions_68" vType="Car" speedFactor="1.05" vaporized="">
        <emissions CO_abs="1082.28" CO2_abs="197220.28" HC_abs="7.22" PMx_abs="16.89" NOx_abs="68.86" fuel_abs="63936.10" electricity_abs="0.00"/>
    </tripinfo>
    <tripinfo id="41" depart="82.00" departLane="E14_0" departPos="5.10" departSpeed="0.00" departDelay="0.00" arrival="215.00" arrivalLane="E37_0" arrivalPos="266.06" arrivalSpeed="14.10" duration="133.00" routeLength="1537.42" waitingTime="3.00" waitingCount="2" stopTime="0.00" timeLoss="23.81" rerouteNo="0" devices="tripinfo_41 emissions_41" vType="Car" speedFactor="1.03" vaporized="">
        <emissions CO_abs="2045.19" CO2_abs="344696.84" HC_abs="13.65" PMx_abs="34.07" NOx_abs="118.48" fuel_abs="111745.90" electricity_abs="0.00"/>
    </tripinfo>
    <tripinfo id="flow_z3.14" depart="29.00" departLane="-E28_1" departPos="5.10" departSpeed="8.13" departDelay="17.34" arrival="215.00" arrivalLane="-E29_1" arrivalPos="266.06" arrivalSpeed="12.21" duration="186.00" routeLength="1186.43" waitingTime="43.00" waitingCount="1" stopTime="0.00" timeLoss="92.35" rerouteNo="0" devices="tripinfo_flow_z3.14 emissions_flow_z3.14" vType="Car" speedFactor="0.93" vaporized="">
        <emissions CO_abs="1300.78" CO2_abs="369842.72" HC_abs="8.63" PMx_abs="23.29" NOx_abs="125.68" fuel_abs="119898.27" electricity_abs="0.00"/>
    </tripinfo>
    <tripinfo id="39" depart="83.00" departLane="-E28_0" departPos="5.10" departSpeed="0.00" departDelay="5.00" arrival="217.00" arrivalLane="-E26_1" arrivalPos="265.43" arrivalSpeed="8.33" duration="134.00" routeLength="860.33" waitingTime="18.00" waitingCount="3" stopTime="0.00" timeLoss="69.39" rerouteNo="0" devices="tripinfo_39 emissions_39" vType="Car" speedFactor="0.96" vaporized="">
        <emissions CO_abs="690.68" CO2_abs="272956.51" HC_abs="4.61" PMx_abs="20.95" NOx_abs="93.11" fuel_abs="88489.23" electricity_abs="0.00"/>
    </tripinfo>