<?xml version="1.0" encoding="UTF-8"?>

<!-- generated on 2026-05-30T17:20:27.823527+00:00 by Eclipse SUMO sumo 1.26.0
<sumoConfiguration xmlns:xsi="http://www.w3.org/2001/XMLSchema-instance" xsi:noNamespaceSchemaLocation="http://sumo.dlr.de/xsd/sumoConfiguration.xsd">

    <input>
        <net-file value="manhattan.net.xml"/>
        <route-files value="routes.rou.xml,background.rou.xml"/>
        <additional-files value="mosaic_types.add.xml"/>
    </input>

    <output>
        <tripinfo-output value="/home/netsim/opt/tpnpr/tripinfo.xml"/>
    </output>

    <time>
        <begin value="0"/>
        <end value="3600"/>
        <step-length value="1.00"/>
    </time>

    <processing>
        <ignore-route-errors value="true"/>
        <time-to-teleport value="0"/>
    </processing>

    <report>
        <verbose value="true"/>
        <no-step-log value="true"/>
    </report>

    <emissions>
        <device.emissions.probability value="1.0"/>
    </emissions>

    <traci_server>
        <remote-port value="38589"/>
    </traci_server>

    <random_number>
        <seed value="100000"/>
    </random_number>

</sumoConfiguration>
-->

<tripinfos xmlns:xsi="http://www.w3.org/2001/XMLSchema-instance" xsi:noNamespaceSchemaLocation="http://sumo.dlr.de/xsd/tripinfo_file.xsd">
    <tripinfo id="13" depart="26.00" departLane="-E15_0" departPos="5.10" departSpeed="0.00" departDelay="0.00" arrival="70.00" arrivalLane="-E15_0" arrivalPos="479.20" arrivalSpeed="11.51" duration="44.00" routeLength="474.10" waitingTime="0.00" waitingCount="0" stopTime="0.00" timeLoss="5.14" rerouteNo="0" devices="tripinfo_13 emissions_13" vType="Car" speedFactor="0.88" vaporized="">
        <emissions CO_abs="418.81" CO2_abs="95917.00" HC_abs="2.80" PMx_abs="9.72" NOx_abs="32.33" fuel_abs="31095.02" electricity_abs="0.00"/>
    </tripinfo>
    <tripinfo id="flow_z3.1" depart="2.00" departLane="-E28_1" departPos="5.10" departSpeed="13.87" departDelay="0.33" arrival="85.00" arrivalLane="-E29_0" arrivalPos="266.06" arrivalSpeed="15.71" duration="83.00" routeLength="1186.43" waitingTime="0.00" waitingCount="0" stopTime="0.00" timeLoss="7.65" rerouteNo="0" devices="tripinfo_flow_z3.1 emissions_flow_z3.1" vType="Car" speedFactor="1.16" vaporized="">
        <emissions CO_abs="1615.83" CO2_abs="215637.48" HC_abs="10.83" PMx_abs="26.31" NOx_abs="78.10" fuel_abs="69906.85" electricity_abs="0.00"/>
    </tripinfo>
    <tripinfo id="22" depart="44.00" departLane="-E14_0" departPos="5.10" departSpeed="0.00" departDelay="0.00" arrival="99.00" arrivalLane="-E25_0" arrivalPos="279.20" arrivalSpeed="11.43" duration="55.00" routeLength="574.10" waitingTime="0.00" waitingCount="0" stopTime="0.00" timeLoss="5.64" rerouteNo="0" devices="tripinfo_22 emissions_22" vType="Car" speedFactor="0.85" vaporized="">
        <emissions CO_abs="471.12" CO2_abs="114066.97" HC_abs="3.15" PMx_abs="12.09" NOx_abs="38.75" fuel_abs="36979.06" electricity_abs="0.00"/>
    </tripinfo>
    <tripinfo id="flow_z3.0" depart="0.00" departLane="-E28_1" departPos="5.10" departSpeed="12.68" departDelay="0.00" arrival="104.00" arrivalLane="-E29_0" arrivalPos="266.06" arrivalSpeed="12.02" duration="104.00" routeLength="1186.43" waitingTime="0.00" waitingCount="0" stopTime="0.00" timeLoss="8.34" rerouteNo="0" devices="tripinfo_flow_z3.0 emissions_flow_z3.0" vType="Car" speedFactor="0.91" vaporized="">
        <emissions CO_abs="950.78" CO2_abs="200114.62" HC_abs="6.38" PMx_abs="24.56" NOx_abs="70.75" fuel_abs="64874.89" electricity_abs="0.00"/>
    </tripinfo>
    <tripinfo id="flow_z3.2" depart="4.00" departLane="-E28_1" departPos="5.10" departSpeed="13.74" departDelay="0.67" arrival="104.00" arrivalLane="-E29_1" arrivalPos="266.06" arrivalSpeed="13.42" duration="100.00" routeLength="1186.43" waitingTime="0.00" waitingCount="0" stopTime="0.00" timeLoss="11.79" rerouteNo="0" devices="tripinfo_flow_z3.2 emissions_flow_z3.2" vType="Car" speedFactor="0.99" vaporized="">
        <emissions CO_abs="1282.32" CO2_abs="216102.68" HC_abs="8.55" PMx_abs="22.91" NOx_abs="75.64" fuel_abs="70057.69" electricity_abs="0.00"/>
    </tripinfo>
    <tripinfo id="flow_z3.3" depart="5.00" departLane="-E28_1" departPos="5.10" departSpeed="10.42" departDelay="0.00" arrival="107.00" arrivalLane="-E29_0" arrivalPos="266.06" arrivalSpeed="13.14" duration="102.00" routeLength="1186.43" waitingTime="0.00" waitingCount="0" stopTime="0.00" timeLoss="13.77" rerouteNo="0" devices="tripinfo_flow_z3.3 emissions_flow_z3.3" vType="Car" speedFactor="0.99" vaporized="">
        <emissions CO_abs="1474.25" CO2_abs="236106.65" HC_abs="9.81" PMx_abs="23.67" NOx_abs="82.52" fuel_abs="76542.63" electricity_abs="0.00"/>
    </tripinfo>
    <tripinfo id="flow_z3.4" depart="7.00" departLane="-E28_1" departPos="5.10" departSpeed="11.71" departDelay="0.34" arrival="109.00" arrivalLane="-E29_0" arrivalPos="266.06" arrivalSpeed="13.95" duration="102.00" routeLength="1186.43" waitingTime="0.00" waitingCount="0" stopTime="0.00" timeLoss="14.59" rerouteNo="0" devices="tripinfo_flow_z3.4 emissions_flow_z3.4" vType="Car" speedFactor="1.01" vaporized="">
        <emissions CO_abs="1528.34" CO2_abs="243945.04" HC_abs="10.18" PMx_abs="24.41" NOx_abs="85.31" fuel_abs="79083.72" electricity_abs="0.00"/>
    </tripinfo>
    <tripinfo id="flow_z3.5" depart="9.00" departLane="-E28_1" departPos="5.10" departSpeed="12.78" departDelay="0.67" arrival="110.00" arrivalLane="-E29_1" arrivalPos="266.06" arrivalSpeed="14.32" duration="101.00" routeLength="1186.43" waitingTime="0.00" waitingCount="0" stopTime="0.00" timeLoss="18.62" rerouteNo="0" devices="tripinfo_flow_z3.5 emissions_flow_z3.5" vType="Car" speedFactor="1.06" vaporized="">
        <emissions CO_abs="1662.30" CO2_abs="250360.27" HC_abs="11.06" PMx_abs="24.01" NOx_abs="87.56" fuel_abs="81163.35" electricity_abs="0.00"/>
    </tripinfo>
    <tripinfo id="flow_z3.6" depart="10.00" departLane="-E28_1" departPos="5.10" departSpeed="9.98" departDelay="0.00" arrival="111.00" arrivalLane="-E29_0" arrivalPos="266.06" arrivalSpeed="14.30" duration="101.00" routeLength="1186.43" waitingTime="0.00" waitingCount="0" stopTime="0.00" timeLoss="21.93" rerouteNo="0" devices="tripinfo_flow_z3.6 emissions_flow_z3.6" vType="Car" speedFactor="1.10" vaporized="">
        <emissions CO_abs="1689.40" CO2_abs="258009.75" HC_abs="11.24" PMx_abs="24.44" NOx_abs="90.37" fuel_abs="83643.22" electricity_abs="0.00"/>
    </tripinfo>
    <tripinfo id="flow_z3.8" depart="14.00" departLane="-E28_1" departPos="5.10" departSpeed="10.71" departDelay="0.67" arrival="114.00" arrivalLane="-E29_0" arrivalPos="266.06" arrivalSpeed="14.58" duration="100.00" routeLength="1186.43" waitingTime="0.00" waitingCount="0" stopTime="0.00" timeLoss="17.62" rerouteNo="0" devices="tripinfo_flow_z3.8 emissions_flow_z3.8" vType="Car" speedFactor="1.07" vaporized="">
        <emissions CO_abs="1613.05" CO2_abs="249922.14" HC_abs="10.75" PMx_abs="25.49" NOx_abs="87.72" fuel_abs="81021.41" electricity_abs="0.00"/>
    </tripinfo>
    <tripinfo id="12" depart="24.00" departLane="E6_0" departPos="5.10" departSpeed="0.00" departDelay="0.00" arrival="127.00" arrivalLane="-E32_0" arrivalPos="266.06" arrivalSpeed="13.32" duration="103.00" routeLength="1239.52" waitingTime="0.00" waitingCount="0" stopTime="0.00" timeLoss="9.88" rerouteNo="0" devices="tripinfo_12 emissions_12" vType="Car" speedFactor="0.97" vaporized="">
        <emissions CO_abs="1256.03" CO2_abs="233301.37" HC_abs="8.40" PMx_abs="26.89" NOx_abs="81.53" fuel_abs="75633.37" electricity_abs="0.00"/>
    </tripinfo>
    <tripinfo id="21" depart="42.00" departLane="-E25_0" departPos="5.10" departSpeed="0.00" departDelay="0.00" arrival="131.00" arrivalLane="-E3_0" arrivalPos="483.20" arrivalSpeed="12.67" duration="89.00" routeLength="1079.36" waitingTime="0.00" waitingCount="0" stopTime="0.00" timeLoss="7.64" rerouteNo="0" devices="tripinfo_21 emissions_21" vType="Car" speedFactor="0.96" vaporized="">
        <emissions CO_abs="1104.78" CO2_abs="197370.71" HC_abs="7.38" PMx_abs="21.75" NOx_abs="68.58" fuel_abs="63985.01" electricity_abs="0.00"/>
    </tripinfo>
    <tripinfo id="30" depart="60.00" departLane="E9_0" departPos="5.10" departSpeed="0.00" departDelay="0.00" arrival="133.00" arrivalLane="E19_0" arrivalPos="283.20" arrivalSpeed="15.67" duration="73.00" routeLength="878.10" waitingTime="4.00" waitingCount="1" stopTime="0.00" timeLoss="17.13" rerouteNo="0" devices="tripinfo_30 emissions_30" vType="Car" speedFactor="1.13" vaporized="">
        <emissions CO_abs="1290.01" CO2_abs="205138.36" HC_abs="8.63" PMx_abs="20.88" NOx_abs="71.30" fuel_abs="66502.98" electricity_abs="0.00"/>
    </tripinfo>
    <tripinfo id="4" depart="8.00" departLane="-E39_0" departPos="5.10" departSpeed="0.00" departDelay="0.00" arrival="147.00" arrivalLane="-E10_0" arrivalPos="479.20" arrivalSpeed="11.51" duration="139.00" routeLength="1552.66" waitingTime="0.00" waitingCount="0" stopTime="0.00" timeLoss="13.34" rerouteNo="0" devices="tripinfo_4 emissions_4" vType="Car" speedFactor="0.90" vaporized="">
        <emissions CO_abs="1471.99" CO2_abs="297168.75" HC_abs="9.83" PMx_abs="32.18" NOx_abs="102.44" fuel_abs="96338.36" electricity_abs="0.00"/>
    </tripinfo>
    <tripinfo id="1" depart="2.00" departLane="-E29_0" departPos="5.10" departSpeed="0.00" departDelay="0.00" arrival="154.00" arrivalLane="-E24_0" arrivalPos="283.20" arrivalSpeed="14.16" duration="152.00" routeLength="1942.97" waitingTime="0.00" waitingCount="0" stopTime="0.00" timeLoss="15.64" rerouteNo="0" devices="tripinfo_1 emissions_1" vType="Car" speedFactor="1.04" vaporized="">
        <emissions CO_abs="2202.11" CO2_abs="365703.98" HC_abs="14.76" PMx_abs="43.31" NOx_abs="128.67" fuel_abs="118556.54" electricity_abs="0.00"/>
    </tripinfo>
    <tripinfo id="48" depart="96.00" departLane="E9_0" departPos="5.10" departSpeed="0.00" departDelay="0.00" arrival="157.00" arrivalLane="E10_0" arrivalPos="479.20" arrivalSpeed="13.76" duration="61.00" routeLength="772.65" waitingTime="0.00" waitingCount="0" stopTime="0.00" timeLoss="5.74" rerouteNo="0" devices="tripinfo_48 emissions_48" vType="Car" speedFactor="1.03" vaporized="">
        <emissions CO_abs="1056.95" CO2_abs="168098.63" HC_abs="7.06" PMx_abs="18.07" NOx_abs="58.39" fuel_abs="54495.26" electricity_abs="0.00"/>
    </tripinfo>
    <tripinfo id="23" depart="46.00" departLane="-E16_0" departPos="5.10" departSpeed="0.00" departDelay="0.00" arrival="162.00" arrivalLane="-E29_0" arrivalPos="266.06" arrivalSpeed="14.05" duration="116.00" routeLength="1384.98" waitingTime="2.00" waitingCount="1" stopTime="0.00" timeLoss="18.29" rerouteNo="0" devices="tripinfo_23 emissions_23" vType="Car" speedFactor="1.05" vaporized="">
        <emissions CO_abs="1803.74" CO2_abs="301169.35" HC_abs="12.06" PMx_abs="31.80" NOx_abs="104.29" fuel_abs="97635.01" electricity_abs="0.00"/>
    </tripinfo>
    <tripinfo id="flow_z1.2" depart="4.00" departLane="-E1_0" departPos="5.10" departSpeed="13.56" departDelay="0.67" arrival="165.00" arrivalLane="E19_1" arrivalPos="283.20" arrivalSpeed="14.91" duration="161.00" routeLength="2181.19" waitingTime="0.00" waitingCount="0" stopTime="0.00" timeLoss="22.65" rerouteNo="0" devices="tripinfo_flow_z1.2 emissions_flow_z1.2" vType="Car" speedFactor="1.14" vaporized="">
        <emissions CO_abs="2496.07" CO2_abs="366521.78" HC_abs="16.72" PMx_abs="45.37" NOx_abs="132.24" fuel_abs="118821.77" electricity_abs="0.00"/>
    </tripinfo>
    <tripinfo id="flow_z3.9" depart="15.00" departLane="-E28_1" departPos="5.10" departSpeed="7.03" departDelay="0.01" arrival="166.00" arrivalLane="-E29_0" arrivalPos="266.06" arrivalSpeed="16.79" duration="151.00" routeLength="1186.43" waitingTime="56.00" waitingCount="2" stopTime="0.00" timeLoss="78.53" rerouteNo="0" devices="tripinfo_flow_z3.9 emissions_flow_z3.9" vType="Car" speedFactor="1.21" vaporized="">
        <emissions CO_abs="2028.01" CO2_abs="372393.69" HC_abs="13.55" PMx_abs="29.05" NOx_abs="135.54" fuel_abs="120725.47" electricity_abs="0.00"/>
    </tripinfo>
    <tripinfo id="flow_z1.0" depart="0.00" departLane="-E1_0" departPos="5.10" departSpeed="13.81" departDelay="0.00" arrival="168.00" arrivalLane="E19_0" arrivalPos="283.20" arrivalSpeed="13.78" duration="168.00" routeLength="2181.19" waitingTime="0.00" waitingCount="0" stopTime="0.00" timeLoss="8.58" rerouteNo="0" devices="tripinfo_flow_z1.0 emissions_flow_z1.0" vType="Car" speedFactor="0.99" vaporized="">
        <emissions CO_abs="1916.71" CO2_abs="333398.39" HC_abs="12.89" PMx_abs="45.25" NOx_abs="120.28" fuel_abs="108083.98" electricity_abs="0.00"/>
    </tripinfo>
    <tripinfo id="16" depart="32.00" departLane="E10_0" departPos="5.10" departSpeed="0.00" departDelay="0.00" arrival="177.00" arrivalLane="E7_0" arrivalPos="466.06" arrivalSpeed="13.51" duration="145.00" routeLength="1801.77" waitingTime="2.00" waitingCount="1" stopTime="0.00" timeLoss="19.92" rerouteNo="0" devices="tripinfo_16 emissions_16" vType="Car" speedFactor="1.06" vaporized="">
        <emissions CO_abs="2362.21" CO2_abs="370579.56" HC_abs="15.77" PMx_abs="37.99" NOx_abs="128.88" fuel_abs="120136.76" electricity_abs="0.00"/>
    </tripinfo>
    <tripinfo id="flow_z1.1" depart="2.00" departLane="-E1_0" departPos="5.10" departSpeed="13.03" departDelay="0.33" arrival="181.00" arrivalLane="E19_0" arrivalPos="283.20" arrivalSpeed="12.79" duration="179.00" routeLength="2181.19" waitingTime="0.00" waitingCount="0" stopTime="0.00" timeLoss="10.17" rerouteNo="0" devices="tripinfo_flow_z1.1 emissions_flow_z1.1" vType="Car" speedFactor="0.94" vaporized="">
        <emissions CO_abs="1913.86" CO2_abs="357263.50" HC_abs="12.84" PMx_abs="45.11" NOx_abs="127.75" fuel_abs="115820.74" electricity_abs="0.00"/>
    </tripinfo>
    <tripinfo id="flow_z3.7" depart="12.00" departLane="-E28_1" departPos="5.10" departSpeed="9.90" departDelay="0.34" arrival="186.00" arrivalLane="-E29_0" arrivalPos="266.06" arrivalSpeed="12.40" duration="174.00" routeLength="1186.43" waitingTime="62.00" waitingCount="1" stopTime="0.00" timeLoss="76.80" rerouteNo="0" devices="tripinfo_flow_z3.7 emissions_flow_z3.7" vType="Car" speedFactor="0.90" vaporized="">
        <emissions CO_abs="1186.58" CO2_abs="339422.05" HC_abs="7.92" PMx_abs="25.25" NOx_abs="122.64" fuel_abs="110036.99" electricity_abs="0.00"/>
    </tripinfo>
    <tripinfo id="flow_z3.10" depart="17.00" departLane="-E28_1" departPos="5.10" departSpeed="7.25" departDelay="0.34" arrival="186.00" arrivalLane="-E29_1" arrivalPos="266.06" arrivalSpeed="14.15" duration="169.00" routeLength="1186.43" waitingTime="55.00" waitingCount="1" stopTime="0.00" timeLoss="83.03" rerouteNo="0" devices="tripinfo_flow_z3.10 emissions_flow_z3.10" vType="Car" speedFactor="1.02" vaporized="">
        <emissions CO_abs="1544.44" CO2_abs="365251.37" HC_abs="10.29" PMx_abs="26.02" NOx_abs="130.14" fuel_abs="118410.15" electricity_abs="0.00"/>
    </tripinfo>
    <tripinfo id="flow_z3.17" depart="30.00" departLane="-E28_1" departPos="5.10" departSpeed="5.98" departDelay="1.68" arrival="189.00" arrivalLane="-E29_1" arrivalPos="266.06" arrivalSpeed="15.40" duration="159.00" routeLength="1186.43" waitingTime="45.00" waitingCount="1" stopTime="0.00" timeLoss="80.04" rerouteNo="0" devices="tripinfo_flow_z3.17 emissions_flow_z3.17" vType="Car" speedFactor="1.11" vaporized="">
        <emissions CO_abs="1814.87" CO2_abs="369261.51" HC_abs="12.07" PMx_abs="25.89" NOx_abs="129.74" fuel_abs="119709.79" electricity_abs="0.00"/>
    </tripinfo>
    <tripinfo id="flow_z2.1" depart="2.00" departLane="-E18_0" departPos="5.10" departSpeed="13.62" departDelay="0.33" arrival="191.00" arrivalLane="-E15_0" arrivalPos="479.20" arrivalSpeed="13.88" duration="189.00" routeLength="1988.38" waitingTime="24.00" waitingCount="1" stopTime="0.00" timeLoss="52.94" rerouteNo="0" devices="tripinfo_flow_z2.1 emissions_flow_z2.1" vType="Car" speedFactor="1.06" vaporized="">
        <emissions CO_abs="2273.47" CO2_abs="417638.07" HC_abs="15.19" PMx_abs="41.68" NOx_abs="148.27" fuel_abs="135393.12" electricity_abs="0.00"/>
    </tripinfo>
    <tripinfo id="flow_z3.13" depart="23.00" departLane="-E28_1" departPos="5.10" departSpeed="9.21" departDelay="1.34" arrival="191.00" arrivalLane="-E29_0" arrivalPos="266.06" arrivalSpeed="11.39" duration="168.00" routeLength="1186.43" waitingTime="50.00" waitingCount="1" stopTime="0.00" timeLoss="71.02" rerouteNo="0" devices="tripinfo_flow_z3.13 emissions_flow_z3.13" vType="Car" speedFactor="0.90" vaporized="">
        <emissions CO_abs="1190.95" CO2_abs="321630.64" HC_abs="7.93" PMx_abs="23.27" NOx_abs="113.75" fuel_abs="104268.96" electricity_abs="0.00"/>
    </tripinfo>
    <tripinfo id="flow_z3.15" depart="26.00" departLane="-E28_1" departPos="5.10" departSpeed="6.40" departDelay="1.01" arrival="191.00" arrivalLane="-E29_1" arrivalPos="266.06" arrivalSpeed="14.57" duration="165.00" routeLength="1186.43" waitingTime="48.00" waitingCount="2" stopTime="0.00" timeLoss="84.29" rerouteNo="0" devices="tripinfo_flow_z3.15 emissions_flow_z3.15" vType="Car" speedFactor="1.07" vaporized="">
        <emissions CO_abs="1802.93" CO2_abs="385588.76" HC_abs="11.97" PMx_abs="25.94" NOx_abs="135.30" fuel_abs="125003.01" electricity_abs="0.00"/>
    </tripinfo>
    <tripinfo id="flow_z2.2" depart="4.00" departLane="-E18_0" departPos="5.10" departSpeed="13.97" departDelay="0.67" arrival="195.00" arrivalLane="-E15_1" arrivalPos="479.20" arrivalSpeed="13.04" duration="191.00" routeLength="1988.38" waitingTime="22.00" waitingCount="1" stopTime="0.00" timeLoss="47.19" rerouteNo="0" devices="tripinfo_flow_z2.2 emissions_flow_z2.2" vType="Car" speedFactor="1.01" vaporized="">
        <emissions CO_abs="2203.59" CO2_abs="422186.13" HC_abs="14.72" PMx_abs="42.12" NOx_abs="148.70" fuel_abs="136867.45" electricity_abs="0.00"/>
    </tripinfo>
    <tripinfo id="54" depart="108.00" departLane="-E6_0" departPos="5.10" departSpeed="0.00" departDelay="0.00" arrival="196.00" arrivalLane="E6_1" arrivalPos="466.06" arrivalSpeed="5.94" duration="88.00" routeLength="1043.03" waitingTime="1.00" waitingCount="1" stopTime="0.00" timeLoss="17.89" rerouteNo="0" devices="tripinfo_54 emissions_54" vType="Car" speedFactor="1.10" vaporized="">
        <emissions CO_abs="1460.80" CO2_abs="237607.77" HC_abs="9.75" PMx_abs="23.35" NOx_abs="81.52" fuel_abs="77029.04" electricity_abs="0.00"/>
    </tripinfo>
    <tripinfo id="flow_z2.0" depart="0.00" departLane="-E18_0" departPos="5.10" departSpeed="12.79" departDelay="0.00" arrival="197.00" arrivalLane="-E15_0" arrivalPos="479.20" arrivalSpeed="12.53" duration="197.00" routeLength="1988.38" waitingTime="21.00" waitingCount="1" stopTime="0.00" timeLoss="38.75" rerouteNo="0" devices="tripinfo_flow_z2.0 emissions_flow_z2.0" vType="Car" speedFactor="0.92" vaporized="">
        <emissions CO_abs="1843.82" CO2_abs="397652.13" HC_abs="12.34" PMx_abs="41.14" NOx_abs="140.10" fuel_abs="128914.15" electricity_abs="0.00"/>
    </tripinfo>
    <tripinfo id="18" depart="36.00" departLane="E32_0" departPos="5.10" departSpeed="0.00" departDelay="0.00" arrival="197.00" arrivalLane="E17_0" arrivalPos="465.43" arrivalSpeed="12.50" duration="161.00" routeLength="1839.24" waitingTime="0.00" waitingCount="0" stopTime="0.00" timeLoss="17.31" rerouteNo="0" devices="tripinfo_18 emissions_18" vType="Car" speedFactor="0.95" vaporized="">
        <emissions CO_abs="2040.28" CO2_abs="377975.34" HC_abs="13.61" PMx_abs="39.64" NOx_abs="130.64" fuel_abs="122534.70" electricity_abs="0.00"/>
    </tripinfo>
    <tripinfo id="flow_z2.5" depart="9.00" departLane="-E18_0" departPos="5.10" departSpeed="14.16" departDelay="0.67" arrival="198.00" arrivalLane="-E15_0" arrivalPos="479.20" arrivalSpeed="13.53" duration="189.00" routeLength="1988.38" waitingTime="20.00" waitingCount="1" stopTime="0.00" timeLoss="47.29" rerouteNo="0" devices="tripinfo_flow_z2.5 emissions_flow_z2.5" vType="Car" speedFactor="1.02" vaporized="">
        <emissions CO_abs="2271.87" CO2_abs="421103.16" HC_abs="15.16" PMx_abs="40.52" NOx_abs="147.71" fuel_abs="136516.29" electricity_abs="0.00"/>
    </tripinfo>
    <tripinfo id="3" depart="6.00" departLane="E37_0" departPos="5.10" departSpeed="0.00" departDelay="0.00" arrival="201.00" arrivalLane="-E14_1" arrivalPos="279.20" arrivalSpeed="13.57" duration="195.00" routeLength="1837.99" waitingTime="47.00" waitingCount="1" stopTime="0.00" timeLoss="67.38" rerouteNo="0" devices="tripinfo_3 emissions_3" vType="Car" speedFactor="1.06" vaporized="">
        <emissions CO_abs="2436.18" CO2_abs="457647.46" HC_abs="16.28" PMx_abs="40.63" NOx_abs="163.58" fuel_abs="148363.69" electricity_abs="0.00"/>
    </tripinfo>
    <tripinfo id="flow_z2.3" depart="5.00" departLane="-E18_0" departPos="5.10" departSpeed="11.06" departDelay="0.00" arrival="203.00" arrivalLane="-E15_1" arrivalPos="479.20" arrivalSpeed="7.21" duration="198.00" routeLength="1984.04" waitingTime="21.00" waitingCount="3" stopTime="0.00" timeLoss="59.66" rerouteNo="0" devices="tripinfo_flow_z2.3 emissions_flow_z2.3" vType="Car" speedFactor="1.05" vaporized="">
        <emissions CO_abs="2344.01" CO2_abs="445306.01" HC_abs="15.65" PMx_abs="41.81" NOx_abs="155.56" fuel_abs="144362.37" electricity_abs="0.00"/>
    </tripinfo>
    <tripinfo id="flow_z3.11" depart="19.00" departLane="-E28_1" departPos="5.10" departSpeed="7.56" departDelay="0.67" arrival="205.00" arrivalLane="-E29_1" arrivalPos="266.06" arrivalSpeed="15.32" duration="186.00" routeLength="1186.43" waitingTime="56.00" waitingCount="2" stopTime="0.00" timeLoss="106.71" rerouteNo="0" devices="tripinfo_flow_z3.11 emissions_flow_z3.11" vType="Car" speedFactor="1.10" vaporized="">
        <emissions CO_abs="1545.04" CO2_abs="390526.57" HC_abs="10.27" PMx_abs="25.03" NOx_abs="137.03" fuel_abs="126603.98" electricity_abs="0.00"/>
    </tripinfo>
    <tripinfo id="49" depart="98.00" departLane="E7_0" departPos="5.10" departSpeed="0.00" departDelay="0.00" arrival="210.00" arrivalLane="E34_0" arrivalPos="266.06" arrivalSpeed="10.79" duration="112.00" routeLength="1101.24" waitingTime="0.00" waitingCount="0" stopTime="0.00" timeLoss="11.36" rerouteNo="0" devices="tripinfo_49 emissions_49" vType="Car" speedFactor="0.81" vaporized="">
        <emissions CO_abs="871.47" CO2_abs="227312.16" HC_abs="5.82" PMx_abs="23.55" NOx_abs="77.77" fuel_abs="73691.86" electricity_abs="0.00"/>
    </tripinfo>
    <tripinfo id="flow_z3.12" depart="21.00" departLane="-E28_1" departPos="5.10" departSpeed="8.33" departDelay="1.01" arrival="211.00" arrivalLane="-E29_1" arrivalPos="266.06" arrivalSpeed="11.85" duration="190.00" routeLength="1186.43" waitingTime="55.00" waitingCount="1" stopTime="0.00" timeLoss="97.30" rerouteNo="0" devices="tripinfo_flow_z3.12 emissions_flow_z3.12" vType="Car" speedFactor="0.94" vaporized="">
        <emissions CO_abs="1231.55" CO2_abs="360109.76" HC_abs="8.18" PMx_abs="22.40" NOx_abs="125.50" fuel_abs="116743.31" electricity_abs="0.00"/>
    </tripinfo>
    <tripinfo id="flow_z3.14" depart="24.00" departLane="-E28_1" departPos="5.10" departSpeed="5.36" departDelay="0.68" arrival="216.00" arrivalLane="-E29_0" arrivalPos="266.06" arrivalSpeed="8.33" duration="192.00" routeLength="1186.43" waitingTime="53.00" waitingCount="1" stopTime="0.00" timeLoss="98.01" rerouteNo="0" devices="tripinfo_flow_z3.14 emissions_flow_z3.14" vType="Car" speedFactor="0.93" vaporized="">
        <emissions CO_abs="855.02" CO2_abs="367420.57" HC_abs="5.71" PMx_abs="29.33" NOx_abs="133.84" fuel_abs="119114.26" electricity_abs="0.00"/>
    </tripinfo>
    <tripinfo id="11" depart="22.00" departLane="-E33_0" departPos="5.10" departSpeed="0.00" departDelay="0.00" arrival="217.00" arrivalLane="-E2_0" arrivalPos="479.20" arrivalSpeed="8.33" duration="195.00" routeLength="2093.43" waitingTime="0.00" waitingCount="0" stopTime="0.00" timeLoss="46.09" rerouteNo="0" devices="tripinfo_11 emissions_11" vType="Car" speedFactor="1.03" vaporized="">
        <emissions CO_abs="1849.33" CO2_abs="406766.84" HC_abs="12.37" PMx_abs="45.48" NOx_abs="144.72" fuel_abs="131869.16" electricity_abs="0.00"/>
    </tripinfo>
    <tripinfo id="68" depart="136.00" departLane="-E13_0" departPos="5.10" departSpeed="0.00" departDelay="0.00" arrival="217.00" arrivalLane="E27_1" arrivalPos="279.20" arrivalSpeed="13.56" duration="81.00" routeLength="772.65" waitingTime="14.00" waitingCount="1" stopTime="0.00" timeLoss="25.27" rerouteNo="0" devices="tripinfo_68 emissions_68" vType="Car" speedFactor="1.01" vaporized="">
        <emissions CO_abs="948.86" CO2_abs="192097.81" HC_abs="6.34" PMx_abs="16.69" NOx_abs="66.43" fuel_abs="62275.57" electricity_abs="0.00"/>
    </tripinfo>
    <tripinfo id="41" depart="82.00" departLane="E14_0" departPos="5.10" departSpeed="0.00" departDelay="0.00" arrival="219.00" arrivalLane="E37_0" arrivalPos="266.06" arrivalSpeed="12.37" duration="137.00" routeLength="1537.42" waitingTime="0.00" waitingCount="0" stopTime="0.00" timeLoss="17.71" rerouteNo="0" devices="tripinfo_41 emissions_41" vType="Car" speedFactor="0.94" vaporized="">
        <emissions CO_abs="1620.22" CO2_abs="310269.14" HC_abs="10.81" PMx_abs="31.10" NOx_abs="105.71" fuel_abs="100585.08" electricity_abs="0.00"/>
    </tripinfo>
    <tripinfo id="flow_z3.21" depart="37.00" departLane="-E28_1" departPos="5.10" departSpeed="4.58" departDelay="2.01" arrival="224.00" arrivalLane="-E29_0" arrivalPos="266.06" arrivalSpeed="8.33" duration="187.00" routeLength="1186.43" waitingTime="39.00" waitingCount="1" stopTime="0.00" timeLoss="64.64" rerouteNo="0" devices="tripinfo_flow_z3.21 emissions_flow_z3.21" vType="Car" speedFactor="0.71" vaporized="">
        <emissions CO_abs="538.43" CO2_abs="327771.47" HC_abs="3.62" PMx_abs="28.51" NOx_abs="118.66" fuel_abs="106260.60" electricity_abs="0.00"/>
    </tripinfo>
    <tripinfo id="42" depart="84.00" departLane="-E37_0" departPos="5.10" departSpeed="0.00" departDelay="0.00" arrival="226.00" arrivalLane="-E24_1" arrivalPos="283.20" arrivalSpeed="13.27" duration="142.00" routeLength="1551.74" waitingTime="6.00" waitingCount="1" stopTime="0.00" timeLoss="24.69" rerouteNo="0" devices="tripinfo_42 emissions_42" vType="Car" speedFactor="0.96" vaporized="">
        <emissions CO_abs="1802.09" CO2_abs="339840.24" HC_abs="12.02" PMx_abs="33.62" NOx_abs="117.45" fuel_abs="110171.68" electricity_abs="0.00"/>
    </tripinfo>
    <tripinfo id="flow_z3.24" depart="44.00" departLane="-E28_1" departPos="5.10" departSpeed="3.17" departDelay="4.02" arrival="226.00" arrivalLane="-E29_0" arrivalPos="266.06" arrivalSpeed="11.52" duration="182.00" routeLength="1186.43" waitingTime="36.00" waitingCount="1" stopTime="0.00" timeLoss="87.80" rerouteNo="0" devices="tripinfo_flow_z3.24 emissions_flow_z3.24" vType="Car" speedFactor="0.93" vaporized="">
        <emissions CO_abs="1257.03" CO2_abs="367419.32" HC_abs="8.34" PMx_abs="24.01" NOx_abs="125.06" fuel_abs="119112.70" electricity_abs="0.00"/>
    </tripinfo>
    <tripinfo id="flow_z3.26" depart="49.00" departLane="-E28_1" departPos="5.10" departSpeed="5.54" departDelay="5.68" arrival="226.00" arrivalLane="-E29_1" arrivalPos="266.06" arrivalSpeed="8.33" duration="177.00" routeLength="1186.43" waitingTime="36.00" waitingCount="1" stopTime="0.00" timeLoss="77.79" rerouteNo="0" devices="tripinfo_flow_z3.26 emissions_flow_z3.26" vType="Car" speedFactor="0.88" vaporized="">
        <emissions CO_abs="701.97" CO2_abs="323622.65" HC_abs="4.71" PMx_abs="28.10" NOx_abs="116.48" fuel_abs="104915.41" electricity_abs="0.00"/>
    </tripinfo>
    <tripinfo id="36" depart="72.00" departLane="E36_0" departPos="5.10" departSpeed="0.00" departDelay="0.00" arrival="227.00" arrivalLane="-E31_0" arrivalPos="279.20" arrivalSpeed="11.28" duration="155.00" routeLength="1572.41" waitingTime="0.00" waitingCount="0" stopTime="0.00" timeLoss="14.77" rerouteNo="0" devices="tripinfo_36 emissions_36" vType="Car" speedFactor="0.83" vaporized="">
        <emissions CO_abs="1271.51" CO2_abs="313275.18" HC_abs="8.49" PMx_abs="33.07" NOx_abs="106.91" fuel_abs="101559.98" electricity_abs="0.00"/>
    </tripinfo>
    <tripinfo id="flow_z1.3" depart="5.00" departLane="-E1_0" departPos="5.10" departSpeed="10.50" departDelay="0.00" arrival="227.00" arrivalLane="E19_0" arrivalPos="283.20" arrivalSpeed="13.68" duration="222.00" routeLength="2181.19" waitingTime="46.00" waitingCount="1" stopTime="0.00" timeLoss="68.01" rerouteNo="0" devices="tripinfo_flow_z1.3 emissions_flow_z1.3" vType="Car" speedFactor="1.03" vaporized="">
        <emissions CO_abs="2757.06" CO2_abs="494330.60" HC_abs="18.40" PMx_abs="44.51" NOx_abs="177.76" fuel_abs="160255.88" electricity_abs="0.00"/>
    </tripinfo>
    <tripinfo id="flow_z3.28" depart="53.00" departLane="-E28_1" departPos="5.10" departSpeed="6.35" departDelay="6.35" arrival="228.00" arrivalLane="-E29_0" arrivalPos="266.06" arrivalSpeed="14.16" duration="175.00" routeLength="1186.43" waitingTime="31.00" waitingCount="1" stopTime="0.00" timeLoss="94.41" rerouteNo="0" devices="tripinfo_flow_z3.28 emissions_flow_z3.28" vType="Car" speedFactor="1.08" vaporized="">
        <emissions CO_abs="1594.42" CO2_abs="379962.01" HC_abs="10.55" PMx_abs="23.26" NOx_abs="129.30" fuel_abs="123178.57" electricity_abs="0.00"/>
    </tripinfo>
    <tripinfo id="flow_z3.32" depart="61.00" departLane="-E28_1" departPos="5.10" departSpeed="7.16" departDelay="7.69" arrival="228.00" arrivalLane="-E29_1" arrivalPos="266.06" arrivalSpeed="12.65" duration="167.00" routeLength="1186.43" waitingTime="31.00" waitingCount="1" stopTime="0.00" timeLoss="86.00" rerouteNo="0" devices="tripinfo_flow_z3.32 emissions_flow_z3.32" vType="Car" speedFactor="1.08" vaporized="">
        <emissions CO_abs="1799.79" CO2_abs="386408.08" HC_abs="11.90" PMx_abs="23.60" NOx_abs="131.77" fuel_abs="125268.20" electricity_abs="0.00"/>
    </tripinfo>