<?xml version="1.0" encoding="UTF-8"?>
<tripinfos>
    <tripinfos>
    <tripinfo id="13" depart="26.00" departLane="-E15_0" departPos="5.10" departSpeed="0.00" departDelay="0.00" arrival="71.00" arrivalLane="-E15_0" arrivalPos="479.20" arrivalSpeed="12.05" duration="45.00" routeLength="474.10" waitingTime="0.00" waitingCount="0" stopTime="0.00" timeLoss="5.21" rerouteNo="0" devices="tripinfo_13 emissions_13" vType="Car" speedFactor="0.88" vaporized="">
    <emissions CO_abs="446.73" CO2_abs="101489.74" HC_abs="2.98" PMx_abs="10.43" NOx_abs="34.31" fuel_abs="32901.64" electricity_abs="0.00"/>
    </tripinfo>
    <tripinfo id="flow_z3.1" depart="3.00" departLane="-E28_1" departPos="5.10" departSpeed="16.11" departDelay="0.00" arrival="85.00" arrivalLane="-E29_0" arrivalPos="266.06" arrivalSpeed="15.71" duration="82.00" routeLength="1186.43" waitingTime="0.00" waitingCount="0" stopTime="0.00" timeLoss="6.42" rerouteNo="0" devices="tripinfo_flow_z3.1 emissions_flow_z3.1" vType="Car" speedFactor="1.16" vaporized="">
    <emissions CO_abs="1568.29" CO2_abs="205503.14" HC_abs="10.52" PMx_abs="25.41" NOx_abs="74.65" fuel_abs="66621.43" electricity_abs="0.00"/>
    </tripinfo>
    <tripinfo id="22" depart="44.00" departLane="-E14_0" departPos="5.10" departSpeed="0.00" departDelay="0.00" arrival="98.00" arrivalLane="-E25_0" arrivalPos="279.20" arrivalSpeed="10.71" duration="54.00" routeLength="574.10" waitingTime="0.00" waitingCount="0" stopTime="0.00" timeLoss="5.58" rerouteNo="0" devices="tripinfo_22 emissions_22" vType="Car" speedFactor="0.85" vaporized="">
    <emissions CO_abs="450.29" CO2_abs="110333.76" HC_abs="3.01" PMx_abs="11.75" NOx_abs="37.47" fuel_abs="35768.80" electricity_abs="0.00"/>
    </tripinfo>
    <tripinfo id="flow_z3.0" depart="0.00" departLane="-E28_1" departPos="5.10" departSpeed="12.68" departDelay="0.00" arrival="104.00" arrivalLane="-E29_0" arrivalPos="266.06" arrivalSpeed="12.66" duration="104.00" routeLength="1186.43" waitingTime="0.00" waitingCount="0" stopTime="0.00" timeLoss="8.13" rerouteNo="0" devices="tripinfo_flow_z3.0 emissions_flow_z3.0" vType="Car" speedFactor="0.91" vaporized="">
    <emissions CO_abs="916.94" CO2_abs="202312.64" HC_abs="6.17" PMx_abs="25.86" NOx_abs="71.70" fuel_abs="65587.54" electricity_abs="0.00"/>
    </tripinfo>
    <tripinfo id="flow_z3.2" depart="6.00" departLane="-E28_1" departPos="5.10" departSpeed="13.74" departDelay="0.00" arrival="104.00" arrivalLane="-E29_1" arrivalPos="266.06" arrivalSpeed="13.57" duration="98.00" routeLength="1186.43" waitingTime="0.00" waitingCount="0" stopTime="0.00" timeLoss="9.62" rerouteNo="0" devices="tripinfo_flow_z3.2 emissions_flow_z3.2" vType="Car" speedFactor="0.99" vaporized="">
    <emissions CO_abs="1191.65" CO2_abs="210506.49" HC_abs="7.98" PMx_abs="25.19" NOx_abs="74.35" fuel_abs="68243.64" electricity_abs="0.00"/>
    </tripinfo>
    <tripinfo id="flow_z3.3" depart="9.00" departLane="-E28_1" departPos="5.10" departSpeed="13.81" departDelay="0.00" arrival="107.00" arrivalLane="-E29_0" arrivalPos="266.06" arrivalSpeed="12.83" duration="98.00" routeLength="1186.43" waitingTime="0.00" waitingCount="0" stopTime="0.00" timeLoss="10.30" rerouteNo="0" devices="tripinfo_flow_z3.3 emissions_flow_z3.3" vType="Car" speedFactor="0.99" vaporized="">
    <emissions CO_abs="1111.92" CO2_abs="203945.44" HC_abs="7.46" PMx_abs="26.04" NOx_abs="72.70" fuel_abs="66116.75" electricity_abs="0.00"/>
    </tripinfo>
    <tripinfo id="flow_z3.4" depart="12.00" departLane="-E28_1" departPos="5.10" departSpeed="13.99" departDelay="0.00" arrival="109.00" arrivalLane="-E29_0" arrivalPos="266.06" arrivalSpeed="13.60" duration="97.00" routeLength="1186.43" waitingTime="0.00" waitingCount="0" stopTime="0.00" timeLoss="9.77" rerouteNo="0" devices="tripinfo_flow_z3.4 emissions_flow_z3.4" vType="Car" speedFactor="1.01" vaporized="">
    <emissions CO_abs="1226.90" CO2_abs="206317.47" HC_abs="8.21" PMx_abs="24.50" NOx_abs="73.21" fuel_abs="66885.58" electricity_abs="0.00"/>
    </tripinfo>
    <tripinfo id="flow_z3.5" depart="15.00" departLane="-E28_1" departPos="5.10" departSpeed="14.75" departDelay="0.00" arrival="110.00" arrivalLane="-E29_1" arrivalPos="266.06" arrivalSpeed="14.32" duration="95.00" routeLength="1186.43" waitingTime="0.00" waitingCount="0" stopTime="0.00" timeLoss="12.47" rerouteNo="0" devices="tripinfo_flow_z3.5 emissions_flow_z3.5" vType="Car" speedFactor="1.06" vaporized="">
    <emissions CO_abs="1317.48" CO2_abs="213308.65" HC_abs="8.83" PMx_abs="25.84" NOx_abs="75.86" fuel_abs="69152.01" electricity_abs="0.00"/>
    </tripinfo>
    <tripinfo id="12" depart="24.00" departLane="E6_0" departPos="5.10" departSpeed="0.00" departDelay="0.00" arrival="128.00" arrivalLane="-E32_0" arrivalPos="266.06" arrivalSpeed="13.17" duration="104.00" routeLength="1239.52" waitingTime="0.00" waitingCount="0" stopTime="0.00" timeLoss="9.99" rerouteNo="0" devices="tripinfo_12 emissions_12" vType="Car" speedFactor="0.97" vaporized="">
    <emissions CO_abs="1228.89" CO2_abs="234661.14" HC_abs="8.23" PMx_abs="27.39" NOx_abs="81.95" fuel_abs="76074.22" electricity_abs="0.00"/>
    </tripinfo>
    <tripinfo id="21" depart="42.00" departLane="-E25_0" departPos="5.10" departSpeed="0.00" departDelay="0.00" arrival="131.00" arrivalLane="-E3_0" arrivalPos="483.20" arrivalSpeed="13.35" duration="89.00" routeLength="1079.36" waitingTime="0.00" waitingCount="0" stopTime="0.00" timeLoss="7.74" rerouteNo="0" devices="tripinfo_21 emissions_21" vType="Car" speedFactor="0.96" vaporized="">
    <emissions CO_abs="1059.81" CO2_abs="195929.11" HC_abs="7.09" PMx_abs="22.28" NOx_abs="68.15" fuel_abs="63517.72" electricity_abs="0.00"/>
    </tripinfo>
    <tripinfo id="30" depart="60.00" departLane="E9_0" departPos="5.10" departSpeed="0.00" departDelay="0.00" arrival="134.00" arrivalLane="E19_0" arrivalPos="283.20" arrivalSpeed="15.46" duration="74.00" routeLength="878.10" waitingTime="4.00" waitingCount="1" stopTime="0.00" timeLoss="17.40" rerouteNo="0" devices="tripinfo_30 emissions_30" vType="Car" speedFactor="1.13" vaporized="">
    <emissions CO_abs="1360.98" CO2_abs="209692.14" HC_abs="9.09" PMx_abs="20.50" NOx_abs="72.99" fuel_abs="67979.19" electricity_abs="0.00"/>
    </tripinfo>
    <tripinfo id="4" depart="8.00" departLane="-E39_0" departPos="5.10" departSpeed="0.00" departDelay="0.00" arrival="147.00" arrivalLane="-E10_0" arrivalPos="479.20" arrivalSpeed="11.75" duration="139.00" routeLength="1552.66" waitingTime="0.00" waitingCount="0" stopTime="0.00" timeLoss="13.23" rerouteNo="0" devices="tripinfo_4 emissions_4" vType="Car" speedFactor="0.90" vaporized="">
    <emissions CO_abs="1451.65" CO2_abs="296485.55" HC_abs="9.70" PMx_abs="32.36" NOx_abs="102.37" fuel_abs="96116.91" electricity_abs="0.00"/>
    </tripinfo>
    <tripinfo id="1" depart="2.00" departLane="-E29_0" departPos="5.10" departSpeed="0.00" departDelay="0.00" arrival="154.00" arrivalLane="-E24_0" arrivalPos="283.20" arrivalSpeed="14.11" duration="152.00" routeLength="1942.97" waitingTime="0.00" waitingCount="0" stopTime="0.00" timeLoss="15.66" rerouteNo="0" devices="tripinfo_1 emissions_1" vType="Car" speedFactor="1.04" vaporized="">
    <emissions CO_abs="2233.55" CO2_abs="364785.82" HC_abs="14.96" PMx_abs="42.28" NOx_abs="128.23" fuel_abs="118258.82" electricity_abs="0.00"/>
    </tripinfo>
    <tripinfo id="48" depart="96.00" departLane="E9_0" departPos="5.10" departSpeed="0.00" departDelay="0.00" arrival="158.00" arrivalLane="E10_0" arrivalPos="479.20" arrivalSpeed="13.18" duration="62.00" routeLength="772.65" waitingTime="0.00" waitingCount="0" stopTime="0.00" timeLoss="7.25" rerouteNo="0" devices="tripinfo_48 emissions_48" vType="Car" speedFactor="1.03" vaporized="">
    <emissions CO_abs="1027.41" CO2_abs="164134.07" HC_abs="6.85" PMx_abs="16.09" NOx_abs="56.18" fuel_abs="53209.90" electricity_abs="0.00"/>
    </tripinfo>
    <tripinfo id="23" depart="46.00" departLane="-E16_0" departPos="5.10" departSpeed="0.00" departDelay="0.00" arrival="162.00" arrivalLane="-E29_0" arrivalPos="266.06" arrivalSpeed="14.04" duration="116.00" routeLength="1384.98" waitingTime="1.00" waitingCount="1" stopTime="0.00" timeLoss="17.91" rerouteNo="0" devices="tripinfo_23 emissions_23" vType="Car" speedFactor="1.05" vaporized="">
    <emissions CO_abs="1824.11" CO2_abs="304525.92" HC_abs="12.19" PMx_abs="31.83" NOx_abs="105.71" fuel_abs="98723.20" electricity_abs="0.00"/>
    </tripinfo>
    <tripinfo id="flow_z1.2" depart="6.00" departLane="-E1_0" departPos="5.10" departSpeed="15.85" departDelay="0.00" arrival="166.00" arrivalLane="E19_1" arrivalPos="283.20" arrivalSpeed="14.88" duration="160.00" routeLength="2181.19" waitingTime="0.00" waitingCount="0" stopTime="0.00" timeLoss="21.68" rerouteNo="0" devices="tripinfo_flow_z1.2 emissions_flow_z1.2" vType="Car" speedFactor="1.14" vaporized="">
    <emissions CO_abs="2336.50" CO2_abs="352203.83" HC_abs="15.69" PMx_abs="45.75" NOx_abs="127.71" fuel_abs="114180.20" electricity_abs="0.00"/>
    </tripinfo>
    <tripinfo id="flow_z1.0" depart="0.00" departLane="-E1_0" departPos="5.10" departSpeed="13.81" departDelay="0.00" arrival="168.00" arrivalLane="E19_0" arrivalPos="283.20" arrivalSpeed="13.56" duration="168.00" routeLength="2181.19" waitingTime="0.00" waitingCount="0" stopTime="0.00" timeLoss="9.04" rerouteNo="0" devices="tripinfo_flow_z1.0 emissions_flow_z1.0" vType="Car" speedFactor="0.99" vaporized="">
    <emissions CO_abs="1926.53" CO2_abs="338978.25" HC_abs="12.97" PMx_abs="46.09" NOx_abs="122.38" fuel_abs="109892.93" electricity_abs="0.00"/>
    </tripinfo>
    <tripinfo id="flow_z3.6" depart="18.00" departLane="-E28_1" departPos="5.10" departSpeed="15.30" departDelay="0.00" arrival="175.00" arrivalLane="-E29_0" arrivalPos="266.06" arrivalSpeed="14.60" duration="157.00" routeLength="1186.43" waitingTime="63.00" waitingCount="2" stopTime="0.00" timeLoss="77.98" rerouteNo="0" devices="tripinfo_flow_z3.6 emissions_flow_z3.6" vType="Car" speedFactor="1.10" vaporized="">
    <emissions CO_abs="1556.21" CO2_abs="341781.69" HC_abs="10.43" PMx_abs="27.47" NOx_abs="125.01" fuel_abs="110801.71" electricity_abs="0.00"/>
    </tripinfo>
    <tripinfo id="16" depart="32.00" departLane="E10_0" departPos="5.10" departSpeed="0.00" departDelay="0.00" arrival="177.00" arrivalLane="E7_0" arrivalPos="466.06" arrivalSpeed="14.11" duration="145.00" routeLength="1801.77" waitingTime="2.00" waitingCount="1" stopTime="0.00" timeLoss="19.91" rerouteNo="0" devices="tripinfo_16 emissions_16" vType="Car" speedFactor="1.06" vaporized="">
    <emissions CO_abs="2276.94" CO2_abs="365581.29" HC_abs="15.22" PMx_abs="38.47" NOx_abs="127.72" fuel_abs="118516.45" electricity_abs="0.00"/>
    </tripinfo>
    <tripinfo id="11" depart="22.00" departLane="-E33_0" departPos="5.10" departSpeed="0.00" departDelay="0.00" arrival="187.00" arrivalLane="-E2_0" arrivalPos="479.20" arrivalSpeed="13.96" duration="165.00" routeLength="2093.43" waitingTime="0.00" waitingCount="0" stopTime="0.00" timeLoss="15.50" rerouteNo="0" devices="tripinfo_11 emissions_11" vType="Car" speedFactor="1.03" vaporized="">
    <emissions CO_abs="2428.69" CO2_abs="398892.07" HC_abs="16.25" PMx_abs="46.17" NOx_abs="140.63" fuel_abs="129315.70" electricity_abs="0.00"/>
    </tripinfo>
    <tripinfo id="flow_z3.11" depart="33.00" departLane="-E28_1" departPos="5.10" departSpeed="15.34" departDelay="0.00" arrival="194.00" arrivalLane="-E29_1" arrivalPos="266.06" arrivalSpeed="15.27" duration="161.00" routeLength="1186.43" waitingTime="42.00" waitingCount="2" stopTime="0.00" timeLoss="81.75" rerouteNo="0" devices="tripinfo_flow_z3.11 emissions_flow_z3.11" vType="Car" speedFactor="1.10" vaporized="">
    <emissions CO_abs="1389.85" CO2_abs="331163.56" HC_abs="9.28" PMx_abs="25.85" NOx_abs="118.17" fuel_abs="107359.36" electricity_abs="0.00"/>
    </tripinfo>
    <tripinfo id="flow_z3.9" depart="27.00" departLane="-E28_1" departPos="5.10" departSpeed="16.79" departDelay="0.00" arrival="195.00" arrivalLane="-E29_1" arrivalPos="266.06" arrivalSpeed="15.79" duration="168.00" routeLength="1186.43" waitingTime="49.00" waitingCount="2" stopTime="0.00" timeLoss="96.04" rerouteNo="0" devices="tripinfo_flow_z3.9 emissions_flow_z3.9" vType="Car" speedFactor="1.21" vaporized="">
    <emissions CO_abs="1511.98" CO2_abs="347770.68" HC_abs="10.05" PMx_abs="22.65" NOx_abs="123.59" fuel_abs="112743.00" electricity_abs="0.00"/>
    </tripinfo>
    <tripinfo id="18" depart="36.00" departLane="E32_0" departPos="5.10" departSpeed="0.00" departDelay="0.00" arrival="197.00" arrivalLane="E17_0" arrivalPos="465.43" arrivalSpeed="12.73" duration="161.00" routeLength="1839.24" waitingTime="0.00" waitingCount="0" stopTime="0.00" timeLoss="17.64" rerouteNo="0" devices="tripinfo_18 emissions_18" vType="Car" speedFactor="0.95" vaporized="">
    <emissions CO_abs="2141.11" CO2_abs="386604.73" HC_abs="14.27" PMx_abs="39.39" NOx_abs="133.63" fuel_abs="125332.18" electricity_abs="0.00"/>
    </tripinfo>
    <tripinfo id="54" depart="108.00" departLane="-E6_0" departPos="5.10" departSpeed="0.00" departDelay="0.00" arrival="197.00" arrivalLane="E6_1" arrivalPos="466.06" arrivalSpeed="6.89" duration="89.00" routeLength="1043.03" waitingTime="1.00" waitingCount="1" stopTime="0.00" timeLoss="18.74" rerouteNo="0" devices="tripinfo_54 emissions_54" vType="Car" speedFactor="1.10" vaporized="">
    <emissions CO_abs="1494.70" CO2_abs="244364.50" HC_abs="9.98" PMx_abs="24.08" NOx_abs="83.85" fuel_abs="79219.50" electricity_abs="0.00"/>
    </tripinfo>
    <tripinfo id="flow_z2.1" depart="3.00" departLane="-E18_0" departPos="5.10" departSpeed="14.78" departDelay="0.00" arrival="197.00" arrivalLane="-E15_1" arrivalPos="479.20" arrivalSpeed="10.60" duration="194.00" routeLength="1988.38" waitingTime="8.00" waitingCount="2" stopTime="0.00" timeLoss="57.82" rerouteNo="0" devices="tripinfo_flow_z2.1 emissions_flow_z2.1" vType="Car" speedFactor="1.06" vaporized="">
    <emissions CO_abs="2357.24" CO2_abs="424838.68" HC_abs="15.69" PMx_abs="38.32" NOx_abs="147.51" fuel_abs="137726.93" electricity_abs="0.00"/>
    </tripinfo>
    <tripinfo id="flow_z2.3" depart="9.00" departLane="-E18_0" departPos="5.10" departSpeed="14.52" departDelay="0.00" arrival="199.00" arrivalLane="-E15_1" arrivalPos="479.20" arrivalSpeed="12.81" duration="190.00" routeLength="1984.04" waitingTime="7.00" waitingCount="1" stopTime="0.00" timeLoss="51.20" rerouteNo="0" devices="tripinfo_flow_z2.3 emissions_flow_z2.3" vType="Car" speedFactor="1.05" vaporized="">
    <emissions CO_abs="2399.66" CO2_abs="433862.45" HC_abs="15.99" PMx_abs="41.22" NOx_abs="150.61" fuel_abs="140652.48" electricity_abs="0.00"/>
    </tripinfo>
    <tripinfo id="flow_z2.2" depart="6.00" departLane="-E18_0" departPos="5.10" departSpeed="13.97" departDelay="0.00" arrival="200.00" arrivalLane="-E15_0" arrivalPos="479.20" arrivalSpeed="8.13" duration="194.00" routeLength="1988.38" waitingTime="7.00" waitingCount="1" stopTime="0.00" timeLoss="49.42" rerouteNo="0" devices="tripinfo_flow_z2.2 emissions_flow_z2.2" vType="Car" speedFactor="1.01" vaporized="">
    <emissions CO_abs="2151.70" CO2_abs="423713.70" HC_abs="14.36" PMx_abs="40.70" NOx_abs="145.59" fuel_abs="137362.44" electricity_abs="0.00"/>
    </tripinfo>
    <tripinfo id="3" depart="6.00" departLane="E37_0" departPos="5.10" departSpeed="0.00" departDelay="0.00" arrival="201.00" arrivalLane="-E14_1" arrivalPos="279.20" arrivalSpeed="13.46" duration="195.00" routeLength="1837.99" waitingTime="47.00" waitingCount="1" stopTime="0.00" timeLoss="67.37" rerouteNo="0" devices="tripinfo_3 emissions_3" vType="Car" speedFactor="1.06" vaporized="">
    <emissions CO_abs="2445.46" CO2_abs="460399.02" HC_abs="16.35" PMx_abs="41.38" NOx_abs="164.29" fuel_abs="149255.68" electricity_abs="0.00"/>
    </tripinfo>
    <tripinfo id="flow_z2.4" depart="12.00" departLane="-E18_0" departPos="5.10" departSpeed="14.64" departDelay="0.00" arrival="201.00" arrivalLane="-E15_1" arrivalPos="479.20" arrivalSpeed="13.71" duration="189.00" routeLength="1984.04" waitingTime="7.00" waitingCount="1" stopTime="0.00" timeLoss="51.05" rerouteNo="0" devices="tripinfo_flow_z2.4 emissions_flow_z2.4" vType="Car" speedFactor="1.05" vaporized="">
    <emissions CO_abs="2409.11" CO2_abs="424452.59" HC_abs="16.06" PMx_abs="40.34" NOx_abs="147.29" fuel_abs="137601.90" electricity_abs="0.00"/>
    </tripinfo>
    <tripinfo id="flow_z2.5" depart="15.00" departLane="-E18_0" departPos="5.10" departSpeed="14.16" departDelay="0.00" arrival="202.00" arrivalLane="-E15_0" arrivalPos="479.20" arrivalSpeed="9.34" duration="187.00" routeLength="1988.38" waitingTime="5.00" waitingCount="1" stopTime="0.00" timeLoss="44.92" rerouteNo="0" devices="tripinfo_flow_z2.5 emissions_flow_z2.5" vType="Car" speedFactor="1.02" vaporized="">
    <emissions CO_abs="2343.02" CO2_abs="427406.04" HC_abs="15.62" PMx_abs="40.89" NOx_abs="147.52" fuel_abs="138559.35" electricity_abs="0.00"/>
    </tripinfo>
    <tripinfo id="flow_z3.15" depart="45.00" departLane="-E28_1" departPos="5.10" departSpeed="14.93" departDelay="0.00" arrival="202.00" arrivalLane="-E29_1" arrivalPos="266.06" arrivalSpeed="14.71" duration="157.00" routeLength="1186.43" waitingTime="32.00" waitingCount="1" stopTime="0.00" timeLoss="75.59" rerouteNo="0" devices="tripinfo_flow_z3.15 emissions_flow_z3.15" vType="Car" speedFactor="1.07" vaporized="">
    <emissions CO_abs="1357.26" CO2_abs="323405.72" HC_abs="9.04" PMx_abs="24.99" NOx_abs="113.46" fuel_abs="104844.19" electricity_abs="0.00"/>
    </tripinfo>
    <tripinfo id="flow_z3.7" depart="21.00" departLane="-E28_1" departPos="5.10" departSpeed="12.49" departDelay="0.00" arrival="205.00" arrivalLane="-E29_0" arrivalPos="266.06" arrivalSpeed="8.33" duration="184.00" routeLength="1186.43" waitingTime="55.00" waitingCount="1" stopTime="0.00" timeLoss="87.15" rerouteNo="0" devices="tripinfo_flow_z3.7 emissions_flow_z3.7" vType="Car" speedFactor="0.90" vaporized="">
    <emissions CO_abs="710.16" CO2_abs="327102.54" HC_abs="4.77" PMx_abs="27.86" NOx_abs="120.70" fuel_abs="106043.72" electricity_abs="0.00"/>
    </tripinfo>
    <tripinfo id="flow_z3.18" depart="54.00" departLane="-E28_1" departPos="5.10" departSpeed="14.50" departDelay="0.00" arrival="207.00" arrivalLane="-E29_1" arrivalPos="266.06" arrivalSpeed="14.30" duration="153.00" routeLength="1186.43" waitingTime="27.00" waitingCount="2" stopTime="0.00" timeLoss="69.12" rerouteNo="0" devices="tripinfo_flow_z3.18 emissions_flow_z3.18" vType="Car" speedFactor="1.04" vaporized="">
    <emissions CO_abs="1275.61" CO2_abs="295250.58" HC_abs="8.48" PMx_abs="22.72" NOx_abs="104.00" fuel_abs="95716.66" electricity_abs="0.00"/>
    </tripinfo>
    <tripinfo id="flow_z2.6" depart="18.00" departLane="-E18_0" departPos="5.10" departSpeed="12.78" departDelay="0.00" arrival="208.00" arrivalLane="-E15_0" arrivalPos="479.20" arrivalSpeed="11.67" duration="190.00" routeLength="1988.38" waitingTime="4.00" waitingCount="1" stopTime="0.00" timeLoss="32.54" rerouteNo="0" devices="tripinfo_flow_z2.6 emissions_flow_z2.6" vType="Car" speedFactor="0.92" vaporized="">
    <emissions CO_abs="1822.51" CO2_abs="388812.67" HC_abs="12.19" PMx_abs="41.09" NOx_abs="135.67" fuel_abs="126048.32" electricity_abs="0.00"/>
    </tripinfo>
    <tripinfo id="49" depart="98.00" departLane="E7_0" departPos="5.10" departSpeed="0.00" departDelay="0.00" arrival="209.00" arrivalLane="E34_0" arrivalPos="266.06" arrivalSpeed="10.90" duration="111.00" routeLength="1101.24" waitingTime="0.00" waitingCount="0" stopTime="0.00" timeLoss="10.57" rerouteNo="0" devices="tripinfo_49 emissions_49" vType="Car" speedFactor="0.81" vaporized="">
    <emissions CO_abs="846.56" CO2_abs="213204.26" HC_abs="5.65" PMx_abs="21.80" NOx_abs="72.71" fuel_abs="69118.20" electricity_abs="0.00"/>
    </tripinfo>
    <tripinfo id="68" depart="136.00" departLane="-E13_0" departPos="5.10" departSpeed="0.00" departDelay="0.00" arrival="210.00" arrivalLane="E27_1" arrivalPos="279.20" arrivalSpeed="13.62" duration="74.00" routeLength="772.65" waitingTime="7.00" waitingCount="1" stopTime="0.00" timeLoss="18.27" rerouteNo="0" devices="tripinfo_68 emissions_68" vType="Car" speedFactor="1.01" vaporized="">
    <emissions CO_abs="889.01" CO2_abs="183775.98" HC_abs="5.96" PMx_abs="18.53" NOx_abs="63.44" fuel_abs="59577.74" electricity_abs="0.00"/>
    </tripinfo>
    <tripinfo id="flow_z2.7" depart="21.00" departLane="-E18_0" departPos="5.10" departSpeed="12.95" departDelay="0.00" arrival="210.00" arrivalLane="-E15_0" arrivalPos="479.20" arrivalSpeed="12.13" duration="189.00" routeLength="1988.38" waitingTime="4.00" waitingCount="1" stopTime="0.00" timeLoss="32.94" rerouteNo="0" devices="tripinfo_flow_z2.7 emissions_flow_z2.7" vType="Car" speedFactor="0.93" vaporized="">
    <emissions CO_abs="1845.65" CO2_abs="384789.36" HC_abs="12.33" PMx_abs="40.00" NOx_abs="133.88" fuel_abs="124743.97" electricity_abs="0.00"/>
    </tripinfo>
    <tripinfo id="flow_z3.8" depart="24.00" departLane="-E28_1" departPos="5.10" departSpeed="14.87" departDelay="0.00" arrival="210.00" arrivalLane="-E29_1" arrivalPos="266.06" arrivalSpeed="14.46" duration="186.00" routeLength="1186.43" waitingTime="55.00" waitingCount="2" stopTime="0.00" timeLoss="104.26" rerouteNo="0" devices="tripinfo_flow_z3.8 emissions_flow_z3.8" vType="Car" speedFactor="1.07" vaporized="">
    <emissions CO_abs="1277.85" CO2_abs="371636.26" HC_abs="8.52" PMx_abs="26.04" NOx_abs="132.14" fuel_abs="120480.28" electricity_abs="0.00"/>
    </tripinfo>
    <tripinfo id="flow_z2.8" depart="24.00" departLane="-E18_0" departPos="5.10" departSpeed="14.04" departDelay="0.00" arrival="211.00" arrivalLane="-E15_1" arrivalPos="479.20" arrivalSpeed="13.55" duration="187.00" routeLength="1984.04" waitingTime="3.00" waitingCount="1" stopTime="0.00" timeLoss="43.32" rerouteNo="0" devices="tripinfo_flow_z2.8 emissions_flow_z2.8" vType="Car" speedFactor="1.01" vaporized="">
    <emissions CO_abs="2245.43" CO2_abs="409127.46" HC_abs="14.97" PMx_abs="39.68" NOx_abs="142.06" fuel_abs="132633.75" electricity_abs="0.00"/>
    </tripinfo>
    <tripinfo id="flow_z2.9" depart="27.00" departLane="-E18_0" departPos="5.10" departSpeed="14.96" departDelay="0.00" arrival="212.00" arrivalLane="-E15_1" arrivalPos="479.20" arrivalSpeed="14.08" duration="185.00" routeLength="1984.04" waitingTime="2.00" waitingCount="1" stopTime="0.00" timeLoss="51.32" rerouteNo="0" devices="tripinfo_flow_z2.9 emissions_flow_z2.9" vType="Car" speedFactor="1.08" vaporized="">
    <emissions CO_abs="2568.79" CO2_abs="441167.91" HC_abs="17.13" PMx_abs="40.17" NOx_abs="150.59" fuel_abs="143020.38" electricity_abs="0.00"/>
    </tripinfo>
    <tripinfo id="flow_z3.10" depart="30.00" departLane="-E28_1" departPos="5.10" departSpeed="14.21" departDelay="0.00" arrival="213.00" arrivalLane="-E29_1" arrivalPos="266.06" arrivalSpeed="13.72" duration="183.00" routeLength="1186.43" waitingTime="49.00" waitingCount="1" stopTime="0.00" timeLoss="98.18" rerouteNo="0" devices="tripinfo_flow_z3.10 emissions_flow_z3.10" vType="Car" speedFactor="1.02" vaporized="">
    <emissions CO_abs="1281.12" CO2_abs="367788.89" HC_abs="8.52" PMx_abs="24.41" NOx_abs="128.15" fuel_abs="119232.79" electricity_abs="0.00"/>
    </tripinfo>
    <tripinfo id="flow_z3.13" depart="39.00" departLane="-E28_1" departPos="5.10" departSpeed="12.47" departDelay="0.00" arrival="213.00" arrivalLane="-E29_0" arrivalPos="266.06" arrivalSpeed="8.33" duration="174.00" routeLength="1186.43" waitingTime="36.00" waitingCount="2" stopTime="0.00" timeLoss="76.55" rerouteNo="0" devices="tripinfo_flow_z3.13 emissions_flow_z3.13" vType="Car" speedFactor="0.90" vaporized="">
    <emissions CO_abs="604.48" CO2_abs="305089.48" HC_abs="4.08" PMx_abs="28.33" NOx_abs="111.40" fuel_abs="98907.31" electricity_abs="0.00"/>
    </tripinfo>
    <tripinfo id="39" depart="80.00" departLane="-E28_0" departPos="5.10" departSpeed="0.00" departDelay="2.00" arrival="217.00" arrivalLane="-E26_1" arrivalPos="265.43" arrivalSpeed="7.24" duration="137.00" routeLength="860.33" waitingTime="15.00" waitingCount="1" stopTime="0.00" timeLoss="87.99" rerouteNo="0" devices="tripinfo_39 emissions_39" vType="Car" speedFactor="1.27" vaporized="">
    <emissions CO_abs="1085.23" CO2_abs="292953.60" HC_abs="7.19" PMx_abs="17.01" NOx_abs="95.85" fuel_abs="94971.23" electricity_abs="0.00"/>
    </tripinfo>
    <tripinfo id="flow_z3.12" depart="36.00" departLane="-E28_1" departPos="5.10" departSpeed="13.10" departDelay="0.00" arrival="217.00" arrivalLane="-E29_1" arrivalPos="266.06" arrivalSpeed="12.86" duration="181.00" routeLength="1186.43" waitingTime="44.00" waitingCount="1" stopTime="0.00" timeLoss="88.98" rerouteNo="0" devices="tripinfo_flow_z3.12 emissions_flow_z3.12" vType="Car" speedFactor="0.94" vaporized="">
    <emissions CO_abs="1192.96" CO2_abs="349231.64" HC_abs="7.92" PMx_abs="23.09" NOx_abs="120.44" fuel_abs="113216.61" electricity_abs="0.00"/>
    </tripinfo>
    <tripinfo id="flow_z2.10" depart="30.00" departLane="-E18_0" departPos="5.10" departSpeed="13.45" departDelay="0.00" arrival="218.00" arrivalLane="-E15_0" arrivalPos="479.20" arrivalSpeed="12.38" duration="188.00" routeLength="1988.38" waitingTime="2.00" waitingCount="2" stopTime="0.00" timeLoss="38.19" rerouteNo="0" devices="tripinfo_flow_z2.10 emissions_flow_z2.10" vType="Car" speedFactor="0.97" vaporized="">
    <emissions CO_abs="1963.01" CO2_abs="398294.54" HC_abs="13.13" PMx_abs="41.41" NOx_abs="137.21" fuel_abs="129121.96" electricity_abs="0.00"/>
    </tripinfo>
    <tripinfo id="41" depart="82.00" departLane="E14_0" departPos="5.10" departSpeed="0.00" departDelay="0.00" arrival="219.00" arrivalLane="E37_0" arrivalPos="266.06" arrivalSpeed="12.17" duration="137.00" routeLength="1537.42" waitingTime="0.00" waitingCount="0" stopTime="0.00" timeLoss="17.51" rerouteNo="0" devices="tripinfo_41 emissions_41" vType="Car" speedFactor="0.94" vaporized="">
    <emissions CO_abs="1656.00" CO2_abs="309657.33" HC_abs="11.04" PMx_abs="30.59" NOx_abs="105.55" fuel_abs="100386.70" electricity_abs="0.00"/>
    </tripinfo>
    <tripinfo id="flow_z2.11" depart="33.00" departLane="-E18_0" departPos="5.10" departSpeed="13.48" departDelay="0.00" arrival="220.00" arrivalLane="-E15_1" arrivalPos="479.20" arrivalSpeed="12.32" duration="187.00" routeLength="1988.38" waitingTime="2.00" waitingCount="2" stopTime="0.00" timeLoss="37.16" rerouteNo="0" devices="tripinfo_flow_z2.11 emissions_flow_z2.11" vType="Car" speedFactor="0.97" vaporized="">
    <emissions CO_abs="1913.26" CO2_abs="388864.52" HC_abs="12.80" PMx_abs="41.37" NOx_abs="134.51" fuel_abs="126064.98" electricity_abs="0.00"/>
    </tripinfo>
    <tripinfo id="flow_z3.14" depart="42.00" departLane="-E28_1" departPos="5.10" departSpeed="12.93" departDelay="0.00" arrival="220.00" arrivalLane="-E29_0" arrivalPos="266.06" arrivalSpeed="12.59" duration="178.00" routeLength="1186.43" waitingTime="38.00" waitingCount="1" stopTime="0.00" timeLoss="84.24" rerouteNo="0" devices="tripinfo_flow_z3.14 emissions_flow_z3.14" vType="Car" speedFactor="0.93" vaporized="">
    <emissions CO_abs="1125.80" CO2_abs="343656.19" HC_abs="7.49" PMx_abs="23.89" NOx_abs="117.80" fuel_abs="111409.10" electricity_abs="0.00"/>
    </tripinfo>
    <tripinfo id="flow_z2.12" depart="36.00" departLane="-E18_0" departPos="5.10" departSpeed="14.67" departDelay="0.00" arrival="221.00" arrivalLane="-E15_1" arrivalPos="479.20" arrivalSpeed="13.56" duration="185.00" routeLength="1984.04" waitingTime="2.00" waitingCount="1" stopTime="0.00" timeLoss="48.13" rerouteNo="0" devices="tripinfo_flow_z2.12 emissions_flow_z2.12" vType="Car" speedFactor="1.06" vaporized="">
    <emissions CO_abs="2362.46" CO2_abs="421820.64" HC_abs="15.77" PMx_abs="39.78" NOx_abs="144.44" fuel_abs="136748.40" electricity_abs="0.00"/>
    </tripinfo>
    <tripinfo id="42" depart="84.00" departLane="-E37_0" departPos="5.10" departSpeed="0.00" departDelay="0.00" arrival="222.00" arrivalLane="-E24_0" arrivalPos="283.20" arrivalSpeed="13.04" duration="138.00" routeLength="1551.74" waitingTime="3.00" waitingCount="1" stopTime="0.00" timeLoss="20.39" rerouteNo="0" devices="tripinfo_42 emissions_42" vType="Car" speedFactor="0.96" vaporized="">
    <emissions CO_abs="1796.05" CO2_abs="332654.71" HC_abs="11.99" PMx_abs="33.50" NOx_abs="114.29" fuel_abs="107842.20" electricity_abs="0.00"/>
    </tripinfo>
    <tripinfo id="flow_z3.19" depart="57.00" departLane="-E28_1" departPos="5.10" departSpeed="14.99" departDelay="0.00" arrival="225.00" arrivalLane="-E29_1" arrivalPos="266.06" arrivalSpeed="14.50" duration="168.00" routeLength="1186.43" waitingTime="27.00" waitingCount="1" stopTime="0.00" timeLoss="87.00" rerouteNo="0" devices="tripinfo_flow_z3.19 emissions_flow_z3.19" vType="Car" speedFactor="1.08" vaporized="">
    <emissions CO_abs="1337.77" CO2_abs="347133.75" HC_abs="8.88" PMx_abs="24.06" NOx_abs="117.99" fuel_abs="112536.16" electricity_abs="0.00"/>
    </tripinfo>
    <tripinfo id="24" depart="48.00" departLane="E18_0" departPos="5.10" departSpeed="0.00" departDelay="0.00" arrival="226.00" arrivalLane="-E35_0" arrivalPos="266.06" arrivalSpeed="5.47" duration="178.00" routeLength="1550.18" waitingTime="53.00" waitingCount="2" stopTime="0.00" timeLoss="74.01" rerouteNo="0" devices="tripinfo_24 emissions_24" vType="Car" speedFactor="1.10" vaporized="">
    <emissions CO_abs="2277.50" CO2_abs="424143.11" HC_abs="15.21" PMx_abs="34.92" NOx_abs="152.13" fuel_abs="137501.93" electricity_abs="0.00"/>
    </tripinfo>
    <tripinfo id="36" depart="72.00" departLane="E36_0" departPos="5.10" departSpeed="0.00" departDelay="0.00" arrival="227.00" arrivalLane="-E31_0" arrivalPos="279.20" arrivalSpeed="11.32" duration="155.00" routeLength="1572.41" waitingTime="0.00" waitingCount="0" stopTime="0.00" timeLoss="14.81" rerouteNo="0" devices="tripinfo_36 emissions_36" vType="Car" speedFactor="0.83" vaporized="">