<?xml version="1.0" encoding="UTF-8"?>

<!-- generated on 2026-05-30T17:29:39.487413+00:00 by Eclipse SUMO sumo 1.26.0
<sumoConfiguration xmlns:xsi="http://www.w3.org/2001/XMLSchema-instance" xsi:noNamespaceSchemaLocation="http://sumo.dlr.de/xsd/sumoConfiguration.xsd">

    <input>
        <net-file value="manhattan.net.xml"/>
        <route-files value="routes.rou.xml,background.rou.xml"/>
        <additional-files value="mosaic_types.add.xml"/>
    </input>

    <output>
        <tripinfo-output value="/home/netsim/opt/tpnpr/tripinfo.xml"/>
    </output>

    <time>
        <begin value="0"/>
        <end value="3600"/>
        <step-length value="1.00"/>
    </time>

    <processing>
        <ignore-route-errors value="true"/>
        <time-to-teleport value="0"/>
    </processing>

    <report>
        <verbose value="true"/>
        <no-step-log value="true"/>
    </report>

    <emissions>
        <device.emissions.probability value="1.0"/>
    </emissions>

    <traci_server>
        <remote-port value="37431"/>
    </traci_server>

    <random_number>
        <seed value="100000"/>
    </random_number>

</sumoConfiguration>
-->

<tripinfos xmlns:xsi="http://www.w3.org/2001/XMLSchema-instance" xsi:noNamespaceSchemaLocation="http://sumo.dlr.de/xsd/tripinfo_file.xsd">
    <tripinfo id="13" depart="26.00" departLane="-E15_0" departPos="5.10" departSpeed="0.00" departDelay="0.00" arrival="64.00" arrivalLane="-E15_0" arrivalPos="479.20" arrivalSpeed="14.03" duration="38.00" routeLength="474.10" waitingTime="0.00" waitingCount="0" stopTime="0.00" timeLoss="5.17" rerouteNo="0" devices="tripinfo_13 emissions_13" vType="Car" speedFactor="1.06" vaporized="">
        <emissions CO_abs="630.35" CO2_abs="103952.18" HC_abs="4.21" PMx_abs="10.75" NOx_abs="35.68" fuel_abs="33699.82" electricity_abs="0.00"/>
    </tripinfo>
    <tripinfo id="22" depart="44.00" departLane="-E14_0" departPos="5.10" departSpeed="0.00" departDelay="0.00" arrival="88.00" arrivalLane="-E25_0" arrivalPos="279.20" arrivalSpeed="13.77" duration="44.00" routeLength="574.10" waitingTime="0.00" waitingCount="0" stopTime="0.00" timeLoss="5.37" rerouteNo="0" devices="tripinfo_22 emissions_22" vType="Car" speedFactor="1.08" vaporized="">
        <emissions CO_abs="774.99" CO2_abs="122112.22" HC_abs="5.18" PMx_abs="13.30" NOx_abs="42.37" fuel_abs="39587.07" electricity_abs="0.00"/>
    </tripinfo>
    <tripinfo id="flow_z3.0" depart="0.00" departLane="-E28_1" departPos="5.10" departSpeed="12.68" departDelay="0.00" arrival="104.00" arrivalLane="-E29_0" arrivalPos="266.06" arrivalSpeed="12.68" duration="104.00" routeLength="1186.43" waitingTime="0.00" waitingCount="0" stopTime="0.00" timeLoss="7.76" rerouteNo="0" devices="tripinfo_flow_z3.0 emissions_flow_z3.0" vType="Car" speedFactor="0.91" vaporized="">
        <emissions CO_abs="996.25" CO2_abs="200155.92" HC_abs="6.67" PMx_abs="23.75" NOx_abs="70.60" fuel_abs="64888.22" electricity_abs="0.00"/>
    </tripinfo>
    <tripinfo id="flow_z3.2" depart="2.00" departLane="-E28_1" departPos="5.10" departSpeed="5.68" departDelay="0.33" arrival="104.00" arrivalLane="-E29_1" arrivalPos="266.06" arrivalSpeed="13.14" duration="102.00" routeLength="1186.43" waitingTime="0.00" waitingCount="0" stopTime="0.00" timeLoss="13.67" rerouteNo="0" devices="tripinfo_flow_z3.2 emissions_flow_z3.2" vType="Car" speedFactor="0.99" vaporized="">
        <emissions CO_abs="1377.35" CO2_abs="235933.68" HC_abs="9.18" PMx_abs="24.68" NOx_abs="82.44" fuel_abs="76486.66" electricity_abs="0.00"/>
    </tripinfo>
    <tripinfo id="flow_z3.1" depart="1.00" departLane="-E28_1" departPos="5.10" departSpeed="10.10" departDelay="0.17" arrival="109.00" arrivalLane="-E29_0" arrivalPos="266.06" arrivalSpeed="11.41" duration="108.00" routeLength="1186.43" waitingTime="0.00" waitingCount="0" stopTime="0.00" timeLoss="11.15" rerouteNo="0" devices="tripinfo_flow_z3.1 emissions_flow_z3.1" vType="Car" speedFactor="0.90" vaporized="">
        <emissions CO_abs="1121.83" CO2_abs="220963.69" HC_abs="7.49" PMx_abs="24.07" NOx_abs="76.99" fuel_abs="71633.73" electricity_abs="0.00"/>
    </tripinfo>
    <tripinfo id="flow_z3.3" depart="4.00" departLane="-E28_1" departPos="5.10" departSpeed="5.55" departDelay="1.50" arrival="109.00" arrivalLane="-E29_1" arrivalPos="266.06" arrivalSpeed="12.62" duration="105.00" routeLength="1186.43" waitingTime="0.00" waitingCount="0" stopTime="0.00" timeLoss="17.06" rerouteNo="0" devices="tripinfo_flow_z3.3 emissions_flow_z3.3" vType="Car" speedFactor="0.99" vaporized="">
        <emissions CO_abs="1398.88" CO2_abs="239679.68" HC_abs="9.32" PMx_abs="23.93" NOx_abs="82.84" fuel_abs="77700.97" electricity_abs="0.00"/>
    </tripinfo>
    <tripinfo id="flow_z3.4" depart="6.00" departLane="-E28_1" departPos="5.10" departSpeed="4.72" departDelay="2.67" arrival="111.00" arrivalLane="-E29_0" arrivalPos="266.06" arrivalSpeed="13.82" duration="105.00" routeLength="1186.43" waitingTime="0.00" waitingCount="0" stopTime="0.00" timeLoss="18.42" rerouteNo="0" devices="tripinfo_flow_z3.4 emissions_flow_z3.4" vType="Car" speedFactor="1.01" vaporized="">
        <emissions CO_abs="1517.19" CO2_abs="251764.46" HC_abs="10.10" PMx_abs="24.23" NOx_abs="87.22" fuel_abs="81618.64" electricity_abs="0.00"/>
    </tripinfo>
    <tripinfo id="flow_z3.6" depart="10.00" departLane="-E28_1" departPos="5.10" departSpeed="2.18" departDelay="5.00" arrival="114.00" arrivalLane="-E29_1" arrivalPos="266.06" arrivalSpeed="14.08" duration="104.00" routeLength="1186.43" waitingTime="0.00" waitingCount="0" stopTime="0.00" timeLoss="25.10" rerouteNo="0" devices="tripinfo_flow_z3.6 emissions_flow_z3.6" vType="Car" speedFactor="1.10" vaporized="">
        <emissions CO_abs="1659.77" CO2_abs="273131.08" HC_abs="11.05" PMx_abs="25.83" NOx_abs="93.63" fuel_abs="88545.28" electricity_abs="0.00"/>
    </tripinfo>
    <tripinfo id="flow_z3.5" depart="8.00" departLane="-E28_1" departPos="5.10" departSpeed="3.73" departDelay="3.84" arrival="115.00" arrivalLane="-E29_0" arrivalPos="266.06" arrivalSpeed="12.65" duration="107.00" routeLength="1186.43" waitingTime="0.00" waitingCount="0" stopTime="0.00" timeLoss="12.46" rerouteNo="0" devices="tripinfo_flow_z3.5 emissions_flow_z3.5" vType="Car" speedFactor="0.92" vaporized="">
        <emissions CO_abs="1229.36" CO2_abs="228828.06" HC_abs="8.20" PMx_abs="23.28" NOx_abs="78.70" fuel_abs="74183.07" electricity_abs="0.00"/>
    </tripinfo>
    <tripinfo id="21" depart="42.00" departLane="-E25_0" departPos="5.10" departSpeed="0.00" departDelay="0.00" arrival="122.00" arrivalLane="-E3_0" arrivalPos="483.20" arrivalSpeed="14.44" duration="80.00" routeLength="1079.36" waitingTime="0.00" waitingCount="0" stopTime="0.00" timeLoss="7.53" rerouteNo="0" devices="tripinfo_21 emissions_21" vType="Car" speedFactor="1.10" vaporized="">
        <emissions CO_abs="1335.52" CO2_abs="200949.60" HC_abs="8.94" PMx_abs="23.60" NOx_abs="71.06" fuel_abs="65145.17" electricity_abs="0.00"/>
    </tripinfo>
    <tripinfo id="30" depart="60.00" departLane="E9_0" departPos="5.10" departSpeed="0.00" departDelay="0.00" arrival="135.00" arrivalLane="E19_0" arrivalPos="283.20" arrivalSpeed="13.67" duration="75.00" routeLength="878.10" waitingTime="3.00" waitingCount="1" stopTime="0.00" timeLoss="15.91" rerouteNo="0" devices="tripinfo_30 emissions_30" vType="Car" speedFactor="1.08" vaporized="">
        <emissions CO_abs="1180.37" CO2_abs="197352.95" HC_abs="7.89" PMx_abs="19.55" NOx_abs="68.48" fuel_abs="63979.04" electricity_abs="0.00"/>
    </tripinfo>
    <tripinfo id="4" depart="8.00" departLane="-E39_0" departPos="5.10" departSpeed="0.00" departDelay="0.00" arrival="142.00" arrivalLane="-E10_0" arrivalPos="479.20" arrivalSpeed="11.81" duration="134.00" routeLength="1552.66" waitingTime="0.00" waitingCount="0" stopTime="0.00" timeLoss="12.27" rerouteNo="0" devices="tripinfo_4 emissions_4" vType="Car" speedFactor="0.93" vaporized="">
        <emissions CO_abs="1484.48" CO2_abs="288488.87" HC_abs="9.93" PMx_abs="32.03" NOx_abs="100.14" fuel_abs="93524.47" electricity_abs="0.00"/>
    </tripinfo>
    <tripinfo id="12" depart="24.00" departLane="E6_0" departPos="5.10" departSpeed="0.00" departDelay="0.00" arrival="147.00" arrivalLane="-E32_0" arrivalPos="266.06" arrivalSpeed="10.10" duration="123.00" routeLength="1239.52" waitingTime="0.00" waitingCount="0" stopTime="0.00" timeLoss="12.19" rerouteNo="0" devices="tripinfo_12 emissions_12" vType="Car" speedFactor="0.81" vaporized="">
        <emissions CO_abs="924.72" CO2_abs="238158.43" HC_abs="6.18" PMx_abs="25.44" NOx_abs="81.94" fuel_abs="77208.13" electricity_abs="0.00"/>
    </tripinfo>
    <tripinfo id="1" depart="2.00" departLane="-E29_0" departPos="5.10" departSpeed="0.00" departDelay="0.00" arrival="153.00" arrivalLane="-E24_0" arrivalPos="283.20" arrivalSpeed="13.21" duration="151.00" routeLength="1942.97" waitingTime="0.00" waitingCount="0" stopTime="0.00" timeLoss="15.37" rerouteNo="0" devices="tripinfo_1 emissions_1" vType="Car" speedFactor="1.04" vaporized="">
        <emissions CO_abs="2219.07" CO2_abs="364761.44" HC_abs="14.88" PMx_abs="42.71" NOx_abs="128.24" fuel_abs="118250.94" electricity_abs="0.00"/>
    </tripinfo>
    <tripinfo id="23" depart="46.00" departLane="-E16_0" departPos="5.10" departSpeed="0.00" departDelay="0.00" arrival="159.00" arrivalLane="-E29_0" arrivalPos="266.06" arrivalSpeed="14.20" duration="113.00" routeLength="1384.98" waitingTime="1.00" waitingCount="1" stopTime="0.00" timeLoss="17.78" rerouteNo="0" devices="tripinfo_23 emissions_23" vType="Car" speedFactor="1.07" vaporized="">
        <emissions CO_abs="1759.62" CO2_abs="294430.17" HC_abs="11.79" PMx_abs="32.13" NOx_abs="102.22" fuel_abs="95450.30" electricity_abs="0.00"/>
    </tripinfo>
    <tripinfo id="48" depart="96.00" departLane="E9_0" departPos="5.10" departSpeed="0.00" departDelay="0.00" arrival="161.00" arrivalLane="E10_0" arrivalPos="479.20" arrivalSpeed="12.66" duration="65.00" routeLength="772.65" waitingTime="0.00" waitingCount="0" stopTime="0.00" timeLoss="7.73" rerouteNo="0" devices="tripinfo_48 emissions_48" vType="Car" speedFactor="1.00" vaporized="">
        <emissions CO_abs="905.92" CO2_abs="159850.24" HC_abs="6.05" PMx_abs="16.86" NOx_abs="55.14" fuel_abs="51821.29" electricity_abs="0.00"/>
    </tripinfo>
    <tripinfo id="flow_z1.2" depart="2.00" departLane="-E1_0" departPos="5.10" departSpeed="7.75" departDelay="0.33" arrival="164.00" arrivalLane="E19_0" arrivalPos="283.20" arrivalSpeed="15.21" duration="162.00" routeLength="2181.19" waitingTime="0.00" waitingCount="0" stopTime="0.00" timeLoss="23.09" rerouteNo="0" devices="tripinfo_flow_z1.2 emissions_flow_z1.2" vType="Car" speedFactor="1.14" vaporized="">
        <emissions CO_abs="2700.31" CO2_abs="392473.52" HC_abs="18.08" PMx_abs="47.14" NOx_abs="141.19" fuel_abs="127234.91" electricity_abs="0.00"/>
    </tripinfo>
    <tripinfo id="flow_z1.0" depart="0.00" departLane="-E1_0" departPos="5.10" departSpeed="13.81" departDelay="0.00" arrival="169.00" arrivalLane="E19_0" arrivalPos="283.20" arrivalSpeed="13.76" duration="169.00" routeLength="2181.19" waitingTime="0.00" waitingCount="0" stopTime="0.00" timeLoss="9.45" rerouteNo="0" devices="tripinfo_flow_z1.0 emissions_flow_z1.0" vType="Car" speedFactor="0.99" vaporized="">
        <emissions CO_abs="2221.50" CO2_abs="359941.78" HC_abs="14.89" PMx_abs="44.66" NOx_abs="129.09" fuel_abs="116688.77" electricity_abs="0.00"/>
    </tripinfo>
    <tripinfo id="flow_z1.1" depart="1.00" departLane="-E1_0" departPos="5.10" departSpeed="10.93" departDelay="0.17" arrival="177.00" arrivalLane="E19_0" arrivalPos="283.20" arrivalSpeed="13.18" duration="176.00" routeLength="2181.19" waitingTime="0.00" waitingCount="0" stopTime="0.00" timeLoss="10.19" rerouteNo="0" devices="tripinfo_flow_z1.1 emissions_flow_z1.1" vType="Car" speedFactor="0.96" vaporized="">
        <emissions CO_abs="2020.47" CO2_abs="355995.69" HC_abs="13.54" PMx_abs="44.19" NOx_abs="127.25" fuel_abs="115409.62" electricity_abs="0.00"/>
    </tripinfo>
    <tripinfo id="16" depart="32.00" departLane="E10_0" departPos="5.10" departSpeed="0.00" departDelay="0.00" arrival="178.00" arrivalLane="E7_0" arrivalPos="466.06" arrivalSpeed="13.89" duration="146.00" routeLength="1801.77" waitingTime="1.00" waitingCount="1" stopTime="0.00" timeLoss="19.34" rerouteNo="0" devices="tripinfo_16 emissions_16" vType="Car" speedFactor="1.05" vaporized="">
        <emissions CO_abs="2183.70" CO2_abs="361679.79" HC_abs="14.61" PMx_abs="39.49" NOx_abs="126.22" fuel_abs="117251.76" electricity_abs="0.00"/>
    </tripinfo>
    <tripinfo id="36" depart="72.00" departLane="E36_0" departPos="5.10" departSpeed="0.00" departDelay="0.00" arrival="178.00" arrivalLane="-E31_0" arrivalPos="279.20" arrivalSpeed="17.24" duration="106.00" routeLength="1568.07" waitingTime="0.00" waitingCount="0" stopTime="0.00" timeLoss="14.14" rerouteNo="0" devices="tripinfo_36 emissions_36" vType="Car" speedFactor="1.27" vaporized="">
        <emissions CO_abs="2982.00" CO2_abs="360030.64" HC_abs="19.95" PMx_abs="39.54" NOx_abs="130.11" fuel_abs="116716.75" electricity_abs="0.00"/>
    </tripinfo>
    <tripinfo id="49" depart="98.00" departLane="E7_0" departPos="5.10" departSpeed="0.00" departDelay="0.00" arrival="178.00" arrivalLane="E34_0" arrivalPos="266.06" arrivalSpeed="15.27" duration="80.00" routeLength="1101.24" waitingTime="0.00" waitingCount="0" stopTime="0.00" timeLoss="8.82" rerouteNo="0" devices="tripinfo_49 emissions_49" vType="Car" speedFactor="1.13" vaporized="">
        <emissions CO_abs="1524.43" CO2_abs="218401.33" HC_abs="10.21" PMx_abs="25.12" NOx_abs="77.50" fuel_abs="70802.74" electricity_abs="0.00"/>
    </tripinfo>
    <tripinfo id="flow_z1.4" depart="6.00" departLane="-E1_0" departPos="5.10" departSpeed="9.40" departDelay="2.67" arrival="178.00" arrivalLane="E19_0" arrivalPos="283.20" arrivalSpeed="12.73" duration="172.00" routeLength="2181.19" waitingTime="0.00" waitingCount="0" stopTime="0.00" timeLoss="14.90" rerouteNo="0" devices="tripinfo_flow_z1.4 emissions_flow_z1.4" vType="Car" speedFactor="1.00" vaporized="">
        <emissions CO_abs="2249.09" CO2_abs="371032.77" HC_abs="15.05" PMx_abs="44.82" NOx_abs="132.58" fuel_abs="120284.31" electricity_abs="0.00"/>
    </tripinfo>
    <tripinfo id="flow_z3.7" depart="13.00" departLane="-E28_1" departPos="5.10" departSpeed="3.08" departDelay="7.17" arrival="187.00" arrivalLane="-E29_1" arrivalPos="266.06" arrivalSpeed="11.24" duration="174.00" routeLength="1186.43" waitingTime="61.00" waitingCount="1" stopTime="0.00" timeLoss="76.57" rerouteNo="0" devices="tripinfo_flow_z3.7 emissions_flow_z3.7" vType="Car" speedFactor="0.90" vaporized="">
        <emissions CO_abs="1169.77" CO2_abs="339295.63" HC_abs="7.80" PMx_abs="24.88" NOx_abs="121.59" fuel_abs="109996.01" electricity_abs="0.00"/>
    </tripinfo>
    <tripinfo id="flow_z3.13" depart="27.00" departLane="-E28_1" departPos="5.10" departSpeed="6.97" departDelay="16.17" arrival="189.00" arrivalLane="-E29_1" arrivalPos="266.06" arrivalSpeed="12.36" duration="162.00" routeLength="1186.43" waitingTime="50.00" waitingCount="1" stopTime="0.00" timeLoss="65.05" rerouteNo="0" devices="tripinfo_flow_z3.13 emissions_flow_z3.13" vType="Car" speedFactor="0.90" vaporized="">
        <emissions CO_abs="1307.90" CO2_abs="326362.51" HC_abs="8.70" PMx_abs="23.41" NOx_abs="116.11" fuel_abs="105802.92" electricity_abs="0.00"/>
    </tripinfo>
    <tripinfo id="flow_z2.1" depart="1.00" departLane="-E18_0" departPos="5.10" departSpeed="9.58" departDelay="0.17" arrival="192.00" arrivalLane="-E15_0" arrivalPos="479.20" arrivalSpeed="13.69" duration="191.00" routeLength="1988.38" waitingTime="36.00" waitingCount="1" stopTime="0.00" timeLoss="53.82" rerouteNo="0" devices="tripinfo_flow_z2.1 emissions_flow_z2.1" vType="Car" speedFactor="1.06" vaporized="">
        <emissions CO_abs="2411.21" CO2_abs="435545.52" HC_abs="16.14" PMx_abs="44.22" NOx_abs="156.55" fuel_abs="141198.65" electricity_abs="0.00"/>
    </tripinfo>
    <tripinfo id="flow_z3.8" depart="15.00" departLane="-E28_1" departPos="5.10" departSpeed="0.86" departDelay="8.34" arrival="192.00" arrivalLane="-E29_0" arrivalPos="266.06" arrivalSpeed="8.33" duration="177.00" routeLength="1186.43" waitingTime="56.00" waitingCount="2" stopTime="0.00" timeLoss="95.87" rerouteNo="0" devices="tripinfo_flow_z3.8 emissions_flow_z3.8" vType="Car" speedFactor="1.07" vaporized="">
        <emissions CO_abs="1107.05" CO2_abs="346169.32" HC_abs="7.41" PMx_abs="26.94" NOx_abs="125.64" fuel_abs="112224.49" electricity_abs="0.00"/>
    </tripinfo>
    <tripinfo id="18" depart="36.00" departLane="E32_0" departPos="5.10" departSpeed="0.00" departDelay="0.00" arrival="193.00" arrivalLane="E17_0" arrivalPos="465.43" arrivalSpeed="13.07" duration="157.00" routeLength="1839.24" waitingTime="0.00" waitingCount="0" stopTime="0.00" timeLoss="16.44" rerouteNo="0" devices="tripinfo_18 emissions_18" vType="Car" speedFactor="0.96" vaporized="">
        <emissions CO_abs="2112.16" CO2_abs="382016.64" HC_abs="14.11" PMx_abs="40.69" NOx_abs="131.80" fuel_abs="123844.79" electricity_abs="0.00"/>
    </tripinfo>
    <tripinfo id="flow_z2.0" depart="0.00" departLane="-E18_0" departPos="5.10" departSpeed="12.79" departDelay="0.00" arrival="196.00" arrivalLane="-E15_0" arrivalPos="479.20" arrivalSpeed="12.70" duration="196.00" routeLength="1988.38" waitingTime="19.00" waitingCount="1" stopTime="0.00" timeLoss="39.00" rerouteNo="0" devices="tripinfo_flow_z2.0 emissions_flow_z2.0" vType="Car" speedFactor="0.92" vaporized="">
        <emissions CO_abs="1858.75" CO2_abs="398716.84" HC_abs="12.43" PMx_abs="40.72" NOx_abs="140.40" fuel_abs="129259.31" electricity_abs="0.00"/>
    </tripinfo>
    <tripinfo id="54" depart="108.00" departLane="-E6_0" departPos="5.10" departSpeed="0.00" departDelay="0.00" arrival="196.00" arrivalLane="E6_1" arrivalPos="466.06" arrivalSpeed="12.97" duration="88.00" routeLength="1043.03" waitingTime="0.00" waitingCount="0" stopTime="0.00" timeLoss="9.49" rerouteNo="0" devices="tripinfo_54 emissions_54" vType="Car" speedFactor="0.98" vaporized="">
        <emissions CO_abs="1173.38" CO2_abs="207544.72" HC_abs="7.83" PMx_abs="21.51" NOx_abs="71.61" fuel_abs="67283.22" electricity_abs="0.00"/>
    </tripinfo>
    <tripinfo id="flow_z2.3" depart="4.00" departLane="-E18_0" departPos="5.10" departSpeed="5.54" departDelay="1.50" arrival="197.00" arrivalLane="-E15_1" arrivalPos="479.20" arrivalSpeed="14.47" duration="193.00" routeLength="1984.04" waitingTime="21.00" waitingCount="2" stopTime="0.00" timeLoss="54.31" rerouteNo="0" devices="tripinfo_flow_z2.3 emissions_flow_z2.3" vType="Car" speedFactor="1.05" vaporized="">
        <emissions CO_abs="2682.49" CO2_abs="460258.30" HC_abs="17.86" PMx_abs="40.46" NOx_abs="161.13" fuel_abs="149209.58" electricity_abs="0.00"/>
    </tripinfo>
    <tripinfo id="flow_z1.3" depart="4.00" departLane="-E1_0" departPos="5.10" departSpeed="8.02" departDelay="1.50" arrival="198.00" arrivalLane="E19_0" arrivalPos="283.20" arrivalSpeed="8.33" duration="194.00" routeLength="2181.19" waitingTime="0.00" waitingCount="0" stopTime="0.00" timeLoss="40.18" rerouteNo="0" devices="tripinfo_flow_z1.3 emissions_flow_z1.3" vType="Car" speedFactor="1.03" vaporized="">
        <emissions CO_abs="2037.26" CO2_abs="407373.51" HC_abs="13.64" PMx_abs="47.72" NOx_abs="146.74" fuel_abs="132065.93" electricity_abs="0.00"/>
    </tripinfo>
    <tripinfo id="flow_z2.2" depart="2.00" departLane="-E18_0" departPos="5.10" departSpeed="5.27" departDelay="0.33" arrival="199.00" arrivalLane="-E15_1" arrivalPos="479.20" arrivalSpeed="13.04" duration="197.00" routeLength="1988.38" waitingTime="20.00" waitingCount="2" stopTime="0.00" timeLoss="52.92" rerouteNo="0" devices="tripinfo_flow_z2.2 emissions_flow_z2.2" vType="Car" speedFactor="1.01" vaporized="">
        <emissions CO_abs="2491.74" CO2_abs="462902.27" HC_abs="16.61" PMx_abs="42.01" NOx_abs="160.98" fuel_abs="150066.75" electricity_abs="0.00"/>
    </tripinfo>
    <tripinfo id="flow_z3.14" depart="29.00" departLane="-E28_1" departPos="5.10" departSpeed="8.13" departDelay="17.34" arrival="200.00" arrivalLane="-E29_1" arrivalPos="266.06" arrivalSpeed="12.82" duration="171.00" routeLength="1186.43" waitingTime="43.00" waitingCount="1" stopTime="0.00" timeLoss="77.90" rerouteNo="0" devices="tripinfo_flow_z3.14 emissions_flow_z3.14" vType="Car" speedFactor="0.93" vaporized="">
        <emissions CO_abs="1270.12" CO2_abs="341727.30" HC_abs="8.45" PMx_abs="24.54" NOx_abs="119.22" fuel_abs="110783.88" electricity_abs="0.00"/>
    </tripinfo>
    <tripinfo id="flow_z3.9" depart="19.00" departLane="-E28_1" departPos="5.10" departSpeed="5.82" departDelay="11.50" arrival="202.00" arrivalLane="-E29_1" arrivalPos="266.06" arrivalSpeed="16.63" duration="183.00" routeLength="1186.43" waitingTime="55.00" waitingCount="2" stopTime="0.00" timeLoss="110.36" rerouteNo="0" devices="tripinfo_flow_z3.9 emissions_flow_z3.9" vType="Car" speedFactor="1.21" vaporized="">
        <emissions CO_abs="1676.80" CO2_abs="394611.81" HC_abs="11.13" PMx_abs="24.84" NOx_abs="138.89" fuel_abs="127928.28" electricity_abs="0.00"/>
    </tripinfo>
    <tripinfo id="3" depart="6.00" departLane="E37_0" departPos="5.10" departSpeed="0.00" departDelay="0.00" arrival="203.00" arrivalLane="-E14_1" arrivalPos="279.20" arrivalSpeed="14.11" duration="197.00" routeLength="1837.99" waitingTime="47.00" waitingCount="1" stopTime="0.00" timeLoss="68.43" rerouteNo="0" devices="tripinfo_3 emissions_3" vType="Car" speedFactor="1.06" vaporized="">
        <emissions CO_abs="2449.22" CO2_abs="467549.80" HC_abs="16.37" PMx_abs="41.65" NOx_abs="166.75" fuel_abs="151573.82" electricity_abs="0.00"/>
    </tripinfo>
    <tripinfo id="flow_z3.17" depart="35.00" departLane="-E28_1" departPos="5.10" departSpeed="2.58" departDelay="20.84" arrival="204.00" arrivalLane="-E29_1" arrivalPos="266.06" arrivalSpeed="12.84" duration="169.00" routeLength="1186.43" waitingTime="41.00" waitingCount="1" stopTime="0.00" timeLoss="77.41" rerouteNo="0" devices="tripinfo_flow_z3.17 emissions_flow_z3.17" vType="Car" speedFactor="0.96" vaporized="">
        <emissions CO_abs="1326.77" CO2_abs="345424.16" HC_abs="8.81" PMx_abs="23.88" NOx_abs="120.11" fuel_abs="111982.22" electricity_abs="0.00"/>
    </tripinfo>
    <tripinfo id="flow_z3.10" depart="21.00" departLane="-E28_1" departPos="5.10" departSpeed="6.01" departDelay="12.67" arrival="206.00" arrivalLane="-E29_1" arrivalPos="266.06" arrivalSpeed="13.94" duration="185.00" routeLength="1186.43" waitingTime="54.00" waitingCount="1" stopTime="0.00" timeLoss="99.42" rerouteNo="0" devices="tripinfo_flow_z3.10 emissions_flow_z3.10" vType="Car" speedFactor="1.02" vaporized="">
        <emissions CO_abs="1637.61" CO2_abs="398546.77" HC_abs="10.86" PMx_abs="24.47" NOx_abs="138.38" fuel_abs="129203.87" electricity_abs="0.00"/>
    </tripinfo>
    <tripinfo id="flow_z3.11" depart="23.00" departLane="-E28_1" departPos="5.10" departSpeed="5.86" departDelay="13.84" arrival="208.00" arrivalLane="-E29_0" arrivalPos="266.06" arrivalSpeed="8.33" duration="185.00" routeLength="1186.43" waitingTime="49.00" waitingCount="1" stopTime="0.00" timeLoss="101.79" rerouteNo="0" devices="tripinfo_flow_z3.11 emissions_flow_z3.11" vType="Car" speedFactor="1.06" vaporized="">
        <emissions CO_abs="1050.48" CO2_abs="358429.74" HC_abs="7.01" PMx_abs="28.09" NOx_abs="129.52" fuel_abs="116199.23" electricity_abs="0.00"/>
    </tripinfo>
    <tripinfo id="68" depart="136.00" departLane="-E13_0" departPos="5.10" departSpeed="0.00" departDelay="0.00" arrival="209.00" arrivalLane="E27_1" arrivalPos="279.20" arrivalSpeed="13.98" duration="73.00" routeLength="772.65" waitingTime="7.00" waitingCount="1" stopTime="0.00" timeLoss="18.56" rerouteNo="0" devices="tripinfo_68 emissions_68" vType="Car" speedFactor="1.05" vaporized="">
        <emissions CO_abs="1086.62" CO2_abs="192031.73" HC_abs="7.25" PMx_abs="17.92" NOx_abs="66.15" fuel_abs="62254.01" electricity_abs="0.00"/>
    </tripinfo>
    <tripinfo id="flow_z3.12" depart="25.00" departLane="-E28_1" departPos="5.10" departSpeed="5.78" departDelay="15.00" arrival="210.00" arrivalLane="-E29_0" arrivalPos="266.06" arrivalSpeed="12.31" duration="185.00" routeLength="1186.43" waitingTime="50.00" waitingCount="1" stopTime="0.00" timeLoss="92.33" rerouteNo="0" devices="tripinfo_flow_z3.12 emissions_flow_z3.12" vType="Car" speedFactor="0.94" vaporized="">
        <emissions CO_abs="1381.09" CO2_abs="376324.22" HC_abs="9.17" PMx_abs="23.73" NOx_abs="128.97" fuel_abs="121999.58" electricity_abs="0.00"/>
    </tripinfo>
    <tripinfo id="flow_z3.15" depart="30.00" departLane="-E28_1" departPos="5.10" departSpeed="4.10" departDelay="17.51" arrival="210.00" arrivalLane="-E29_1" arrivalPos="266.06" arrivalSpeed="14.93" duration="180.00" routeLength="1186.43" waitingTime="45.00" waitingCount="1" stopTime="0.00" timeLoss="98.25" rerouteNo="0" devices="tripinfo_flow_z3.15 emissions_flow_z3.15" vType="Car" speedFactor="1.07" vaporized="">
        <emissions CO_abs="1546.55" CO2_abs="384910.17" HC_abs="10.27" PMx_abs="24.55" NOx_abs="132.10" fuel_abs="124782.90" electricity_abs="0.00"/>
    </tripinfo>
    <tripinfo id="0" depart="0.00" departLane="E19_0" departPos="5.10" departSpeed="0.00" departDelay="0.00" arrival="211.00" arrivalLane="-E10_0" arrivalPos="479.20" arrivalSpeed="13.10" duration="211.00" routeLength="1889.99" waitingTime="52.00" waitingCount="1" stopTime="0.00" timeLoss="70.00" rerouteNo="0" devices="tripinfo_0 emissions_0" vType="Car" speedFactor="0.99" vaporized="">
        <emissions CO_abs="2189.80" CO2_abs="460394.77" HC_abs="14.61" PMx_abs="39.77" NOx_abs="163.41" fuel_abs="149254.38" electricity_abs="0.00"/>
    </tripinfo>
    <tripinfo id="flow_z3.23" depart="48.00" departLane="-E28_1" departPos="5.10" departSpeed="5.07" departDelay="28.84" arrival="212.00" arrivalLane="-E29_0" arrivalPos="266.06" arrivalSpeed="14.15" duration="164.00" routeLength="1186.43" waitingTime="32.00" waitingCount="1" stopTime="0.00" timeLoss="79.29" rerouteNo="0" devices="tripinfo_flow_z3.23 emissions_flow_z3.23" vType="Car" speedFactor="1.03" vaporized="">
        <emissions CO_abs="1555.05" CO2_abs="361528.51" HC_abs="10.33" PMx_abs="25.45" NOx_abs="123.37" fuel_abs="117202.77" electricity_abs="0.00"/>
    </tripinfo>
    <tripinfo id="39" depart="83.00" departLane="-E28_0" departPos="5.10" departSpeed="0.00" departDelay="5.00" arrival="215.00" arrivalLane="-E26_1" arrivalPos="265.43" arrivalSpeed="8.33" duration="132.00" routeLength="860.33" waitingTime="17.00" waitingCount="1" stopTime="0.00" timeLoss="67.40" rerouteNo="0" devices="tripinfo_39 emissions_39" vType="Car" speedFactor="0.96" vaporized="">
        <emissions CO_abs="777.32" CO2_abs="265721.94" HC_abs="5.17" PMx_abs="18.40" NOx_abs="89.51" fuel_abs="86143.68" electricity_abs="0.00"/>
    </tripinfo>
    <tripinfo id="41" depart="82.00" departLane="E14_0" departPos="5.10" departSpeed="0.00" departDelay="0.00" arrival="215.00" arrivalLane="E37_0" arrivalPos="266.06" arrivalSpeed="13.46" duration="133.00" routeLength="1537.42" waitingTime="3.00" waitingCount="1" stopTime="0.00" timeLoss="23.28" rerouteNo="0" devices="tripinfo_41 emissions_41" vType="Car" speedFactor="1.03" vaporized="">
        <emissions CO_abs="1861.05" CO2_abs="332762.73" HC_abs="12.45" PMx_abs="35.28" NOx_abs="115.03" fuel_abs="107877.27" electricity_abs="0.00"/>
    </tripinfo>
    <tripinfo id="flow_z2.4" depart="6.00" departLane="-E18_0" departPos="5.10" departSpeed="5.64" departDelay="2.67" arrival="216.00" arrivalLane="-E15_0" arrivalPos="479.20" arrivalSpeed="13.78" duration="210.00" routeLength="1988.38" waitingTime="1.00" waitingCount="1" stopTime="0.00" timeLoss="73.00" rerouteNo="0" devices="tripinfo_flow_z2.4 emissions_flow_z2.4" vType="Car" speedFactor="1.05" vaporized="">
        <emissions CO_abs="2070.99" CO2_abs="442403.62" HC_abs="13.79" PMx_abs="40.06" NOx_abs="150.50" fuel_abs="143421.34" electricity_abs="0.00"/>
    </tripinfo>
    <tripinfo id="flow_z3.18" depart="38.00" departLane="-E28_1" departPos="5.10" departSpeed="4.76" departDelay="23.01" arrival="219.00" arrivalLane="-E29_1" arrivalPos="266.06" arrivalSpeed="13.40" duration="181.00" routeLength="1186.43" waitingTime="38.00" waitingCount="2" stopTime="0.00" timeLoss="97.02" rerouteNo="0" devices="tripinfo_flow_z3.18 emissions_flow_z3.18" vType="Car" speedFactor="1.04" vaporized="">
        <emissions CO_abs="1500.25" CO2_abs="391543.68" HC_abs="9.96" PMx_abs="24.70" NOx_abs="132.31" fuel_abs="126933.17" electricity_abs="0.00"/>
    </tripinfo>
    <tripinfo id="flow_z2.8" depart="14.00" departLane="-E18_0" departPos="5.10" departSpeed="5.60" departDelay="7.34" arrival="220.00" arrivalLane="-E15_0" arrivalPos="479.20" arrivalSpeed="13.00" duration="206.00" routeLength="1984.04" waitingTime="0.00" waitingCount="0" stopTime="0.00" timeLoss="62.74" rerouteNo="0" devices="tripinfo_flow_z2.8 emissions_flow_z2.8" vType="Car" speedFactor="1.01" vaporized="">
        <emissions CO_abs="2407.77" CO2_abs="470991.43" HC_abs="15.99" PMx_abs="39.41" NOx_abs="158.68" fuel_abs="152688.90" electricity_abs="0.00"/>
    </tripinfo>
    <tripinfo id="42" depart="84.00" departLane="-E37_0" departPos="5.10" departSpeed="0.00" departDelay="0.00" arrival="222.00" arrivalLane="-E24_0" arrivalPos="283.20" arrivalSpeed="14.15" duration="138.00" routeLength="1551.74" waitingTime="6.00" waitingCount="1" stopTime="0.00" timeLoss="28.96" rerouteNo="0" devices="tripinfo_42 emissions_42" vType="Car" speedFactor="1.04" vaporized="">
        <emissions CO_abs="2052.52" CO2_abs="350065.36" HC_abs="13.69" PMx_abs="33.83" NOx_abs="121.18" fuel_abs="113486.40" electricity_abs="0.00"/>
    </tripinfo>