<?xml version="1.0" encoding="UTF-8"?>

<!-- generated on 2026-05-30T17:19:33.071114+00:00 by Eclipse SUMO sumo 1.26.0
<sumoConfiguration xmlns:xsi="http://www.w3.org/2001/XMLSchema-instance" xsi:noNamespaceSchemaLocation="http://sumo.dlr.de/xsd/sumoConfiguration.xsd">

    <input>
        <net-file value="manhattan.net.xml"/>
        <route-files value="routes.rou.xml,background.rou.xml"/>
        <additional-files value="mosaic_types.add.xml"/>
    </input>

    <output>
        <tripinfo-output value="/home/netsim/opt/tpnpr/tripinfo.xml"/>
    </output>

    <time>
        <begin value="0"/>
        <end value="3600"/>
        <step-length value="1.00"/>
    </time>

    <processing>
        <ignore-route-errors value="true"/>
        <time-to-teleport value="0"/>
    </processing>

    <report>
        <verbose value="true"/>
        <no-step-log value="true"/>
    </report>

    <emissions>
        <device.emissions.probability value="1.0"/>
    </emissions>

    <traci_server>
        <remote-port value="42417"/>
    </traci_server>

    <random_number>
        <seed value="100000"/>
    </random_number>

</sumoConfiguration>
-->

<tripinfos xmlns:xsi="http://www.w3.org/2001/XMLSchema-instance" xsi:noNamespaceSchemaLocation="http://sumo.dlr.de/xsd/tripinfo_file.xsd">
    <tripinfo id="13" depart="26.00" departLane="-E15_0" departPos="5.10" departSpeed="0.00" departDelay="0.00" arrival="71.00" arrivalLane="-E15_0" arrivalPos="479.20" arrivalSpeed="11.12" duration="45.00" routeLength="474.10" waitingTime="0.00" waitingCount="0" stopTime="0.00" timeLoss="5.50" rerouteNo="0" devices="tripinfo_13 emissions_13" vType="Car" speedFactor="0.88" vaporized="">
        <emissions CO_abs="414.98" CO2_abs="93000.31" HC_abs="2.77" PMx_abs="9.03" NOx_abs="31.19" fuel_abs="30149.43" electricity_abs="0.00"/>
    </tripinfo>
    <tripinfo id="flow_z3.1" depart="2.00" departLane="-E28_1" departPos="5.10" departSpeed="13.87" departDelay="0.33" arrival="85.00" arrivalLane="-E29_0" arrivalPos="266.06" arrivalSpeed="15.71" duration="83.00" routeLength="1186.43" waitingTime="0.00" waitingCount="0" stopTime="0.00" timeLoss="7.82" rerouteNo="0" devices="tripinfo_flow_z3.1 emissions_flow_z3.1" vType="Car" speedFactor="1.16" vaporized="">
        <emissions CO_abs="1609.06" CO2_abs="215134.58" HC_abs="10.78" PMx_abs="26.21" NOx_abs="77.93" fuel_abs="69743.82" electricity_abs="0.00"/>
    </tripinfo>
    <tripinfo id="22" depart="44.00" departLane="-E14_0" departPos="5.10" departSpeed="0.00" departDelay="0.00" arrival="99.00" arrivalLane="-E25_0" arrivalPos="279.20" arrivalSpeed="11.36" duration="55.00" routeLength="574.10" waitingTime="0.00" waitingCount="0" stopTime="0.00" timeLoss="5.64" rerouteNo="0" devices="tripinfo_22 emissions_22" vType="Car" speedFactor="0.85" vaporized="">
        <emissions CO_abs="492.90" CO2_abs="116643.18" HC_abs="3.29" PMx_abs="12.14" NOx_abs="39.56" fuel_abs="37814.22" electricity_abs="0.00"/>
    </tripinfo>
    <tripinfo id="flow_z3.0" depart="0.00" departLane="-E28_1" departPos="5.10" departSpeed="12.68" departDelay="0.00" arrival="104.00" arrivalLane="-E29_0" arrivalPos="266.06" arrivalSpeed="12.01" duration="104.00" routeLength="1186.43" waitingTime="0.00" waitingCount="0" stopTime="0.00" timeLoss="7.88" rerouteNo="0" devices="tripinfo_flow_z3.0 emissions_flow_z3.0" vType="Car" speedFactor="0.91" vaporized="">
        <emissions CO_abs="982.04" CO2_abs="203238.12" HC_abs="6.59" PMx_abs="24.65" NOx_abs="71.80" fuel_abs="65887.47" electricity_abs="0.00"/>
    </tripinfo>
    <tripinfo id="flow_z3.2" depart="4.00" departLane="-E28_1" departPos="5.10" departSpeed="13.74" departDelay="0.67" arrival="104.00" arrivalLane="-E29_1" arrivalPos="266.06" arrivalSpeed="12.75" duration="100.00" routeLength="1186.43" waitingTime="0.00" waitingCount="0" stopTime="0.00" timeLoss="11.76" rerouteNo="0" devices="tripinfo_flow_z3.2 emissions_flow_z3.2" vType="Car" speedFactor="0.99" vaporized="">
        <emissions CO_abs="1266.90" CO2_abs="215243.13" HC_abs="8.45" PMx_abs="23.22" NOx_abs="75.54" fuel_abs="69779.07" electricity_abs="0.00"/>
    </tripinfo>
    <tripinfo id="flow_z3.3" depart="5.00" departLane="-E28_1" departPos="5.10" departSpeed="10.42" departDelay="0.00" arrival="107.00" arrivalLane="-E29_0" arrivalPos="266.06" arrivalSpeed="13.24" duration="102.00" routeLength="1186.43" waitingTime="0.00" waitingCount="0" stopTime="0.00" timeLoss="13.89" rerouteNo="0" devices="tripinfo_flow_z3.3 emissions_flow_z3.3" vType="Car" speedFactor="0.99" vaporized="">
        <emissions CO_abs="1467.70" CO2_abs="236449.00" HC_abs="9.77" PMx_abs="23.67" NOx_abs="82.48" fuel_abs="76653.61" electricity_abs="0.00"/>
    </tripinfo>
    <tripinfo id="flow_z3.4" depart="7.00" departLane="-E28_1" departPos="5.10" departSpeed="11.71" departDelay="0.34" arrival="109.00" arrivalLane="-E29_0" arrivalPos="266.06" arrivalSpeed="13.25" duration="102.00" routeLength="1186.43" waitingTime="0.00" waitingCount="0" stopTime="0.00" timeLoss="14.74" rerouteNo="0" devices="tripinfo_flow_z3.4 emissions_flow_z3.4" vType="Car" speedFactor="1.01" vaporized="">
        <emissions CO_abs="1519.83" CO2_abs="241956.67" HC_abs="10.11" PMx_abs="23.81" NOx_abs="84.62" fuel_abs="78439.11" electricity_abs="0.00"/>
    </tripinfo>
    <tripinfo id="flow_z3.5" depart="9.00" departLane="-E28_1" departPos="5.10" departSpeed="12.78" departDelay="0.67" arrival="110.00" arrivalLane="-E29_1" arrivalPos="266.06" arrivalSpeed="13.69" duration="101.00" routeLength="1186.43" waitingTime="0.00" waitingCount="0" stopTime="0.00" timeLoss="18.59" rerouteNo="0" devices="tripinfo_flow_z3.5 emissions_flow_z3.5" vType="Car" speedFactor="1.06" vaporized="">
        <emissions CO_abs="1624.29" CO2_abs="248248.69" HC_abs="10.81" PMx_abs="23.99" NOx_abs="86.96" fuel_abs="80478.84" electricity_abs="0.00"/>
    </tripinfo>
    <tripinfo id="flow_z3.6" depart="10.00" departLane="-E28_1" departPos="5.10" departSpeed="9.98" departDelay="0.00" arrival="111.00" arrivalLane="-E29_0" arrivalPos="266.06" arrivalSpeed="14.32" duration="101.00" routeLength="1186.43" waitingTime="0.00" waitingCount="0" stopTime="0.00" timeLoss="21.81" rerouteNo="0" devices="tripinfo_flow_z3.6 emissions_flow_z3.6" vType="Car" speedFactor="1.10" vaporized="">
        <emissions CO_abs="1653.26" CO2_abs="259098.11" HC_abs="11.01" PMx_abs="25.77" NOx_abs="90.69" fuel_abs="83996.12" electricity_abs="0.00"/>
    </tripinfo>
    <tripinfo id="flow_z3.8" depart="14.00" departLane="-E28_1" departPos="5.10" departSpeed="10.71" departDelay="0.67" arrival="113.00" arrivalLane="-E29_0" arrivalPos="266.06" arrivalSpeed="14.58" duration="99.00" routeLength="1186.43" waitingTime="0.00" waitingCount="0" stopTime="0.00" timeLoss="17.56" rerouteNo="0" devices="tripinfo_flow_z3.8 emissions_flow_z3.8" vType="Car" speedFactor="1.07" vaporized="">
        <emissions CO_abs="1693.94" CO2_abs="252614.62" HC_abs="11.28" PMx_abs="24.72" NOx_abs="88.62" fuel_abs="81894.19" electricity_abs="0.00"/>
    </tripinfo>
    <tripinfo id="12" depart="24.00" departLane="E6_0" departPos="5.10" departSpeed="0.00" departDelay="0.00" arrival="128.00" arrivalLane="-E32_0" arrivalPos="266.06" arrivalSpeed="12.81" duration="104.00" routeLength="1239.52" waitingTime="0.00" waitingCount="0" stopTime="0.00" timeLoss="10.49" rerouteNo="0" devices="tripinfo_12 emissions_12" vType="Car" speedFactor="0.97" vaporized="">
        <emissions CO_abs="1220.98" CO2_abs="229853.54" HC_abs="8.17" PMx_abs="26.61" NOx_abs="80.06" fuel_abs="74515.62" electricity_abs="0.00"/>
    </tripinfo>
    <tripinfo id="21" depart="42.00" departLane="-E25_0" departPos="5.10" departSpeed="0.00" departDelay="0.00" arrival="131.00" arrivalLane="-E3_0" arrivalPos="483.20" arrivalSpeed="12.67" duration="89.00" routeLength="1079.36" waitingTime="0.00" waitingCount="0" stopTime="0.00" timeLoss="7.67" rerouteNo="0" devices="tripinfo_21 emissions_21" vType="Car" speedFactor="0.96" vaporized="">
        <emissions CO_abs="1152.62" CO2_abs="203222.92" HC_abs="7.70" PMx_abs="22.20" NOx_abs="70.65" fuel_abs="65882.21" electricity_abs="0.00"/>
    </tripinfo>
    <tripinfo id="30" depart="60.00" departLane="E9_0" departPos="5.10" departSpeed="0.00" departDelay="0.00" arrival="134.00" arrivalLane="E19_1" arrivalPos="283.20" arrivalSpeed="15.64" duration="74.00" routeLength="878.10" waitingTime="5.00" waitingCount="1" stopTime="0.00" timeLoss="17.47" rerouteNo="0" devices="tripinfo_30 emissions_30" vType="Car" speedFactor="1.13" vaporized="">
        <emissions CO_abs="1328.50" CO2_abs="212979.55" HC_abs="8.90" PMx_abs="22.14" NOx_abs="74.09" fuel_abs="69045.01" electricity_abs="0.00"/>
    </tripinfo>
    <tripinfo id="4" depart="8.00" departLane="-E39_0" departPos="5.10" departSpeed="0.00" departDelay="0.00" arrival="147.00" arrivalLane="-E10_0" arrivalPos="479.20" arrivalSpeed="11.51" duration="139.00" routeLength="1552.66" waitingTime="0.00" waitingCount="0" stopTime="0.00" timeLoss="13.34" rerouteNo="0" devices="tripinfo_4 emissions_4" vType="Car" speedFactor="0.90" vaporized="">
        <emissions CO_abs="1471.99" CO2_abs="297168.75" HC_abs="9.83" PMx_abs="32.18" NOx_abs="102.44" fuel_abs="96338.36" electricity_abs="0.00"/>
    </tripinfo>
    <tripinfo id="1" depart="2.00" departLane="-E29_0" departPos="5.10" departSpeed="0.00" departDelay="0.00" arrival="153.00" arrivalLane="-E24_0" arrivalPos="283.20" arrivalSpeed="13.87" duration="151.00" routeLength="1942.97" waitingTime="0.00" waitingCount="0" stopTime="0.00" timeLoss="14.93" rerouteNo="0" devices="tripinfo_1 emissions_1" vType="Car" speedFactor="1.04" vaporized="">
        <emissions CO_abs="2192.28" CO2_abs="358897.52" HC_abs="14.69" PMx_abs="42.01" NOx_abs="126.18" fuel_abs="116349.93" electricity_abs="0.00"/>
    </tripinfo>
    <tripinfo id="48" depart="96.00" departLane="E9_0" departPos="5.10" departSpeed="0.00" departDelay="0.00" arrival="157.00" arrivalLane="E10_0" arrivalPos="479.20" arrivalSpeed="13.83" duration="61.00" routeLength="772.65" waitingTime="0.00" waitingCount="0" stopTime="0.00" timeLoss="6.50" rerouteNo="0" devices="tripinfo_48 emissions_48" vType="Car" speedFactor="1.03" vaporized="">
        <emissions CO_abs="999.79" CO2_abs="166824.39" HC_abs="6.69" PMx_abs="17.68" NOx_abs="57.24" fuel_abs="54082.15" electricity_abs="0.00"/>
    </tripinfo>
    <tripinfo id="flow_z3.9" depart="15.00" departLane="-E28_1" departPos="5.10" departSpeed="7.03" departDelay="0.01" arrival="166.00" arrivalLane="-E29_1" arrivalPos="266.06" arrivalSpeed="16.52" duration="151.00" routeLength="1186.43" waitingTime="56.00" waitingCount="2" stopTime="0.00" timeLoss="78.27" rerouteNo="0" devices="tripinfo_flow_z3.9 emissions_flow_z3.9" vType="Car" speedFactor="1.21" vaporized="">
        <emissions CO_abs="2041.46" CO2_abs="366768.60" HC_abs="13.63" PMx_abs="28.06" NOx_abs="133.60" fuel_abs="118901.84" electricity_abs="0.00"/>
    </tripinfo>
    <tripinfo id="flow_z1.0" depart="0.00" departLane="-E1_0" departPos="5.10" departSpeed="13.81" departDelay="0.00" arrival="168.00" arrivalLane="E19_0" arrivalPos="283.20" arrivalSpeed="13.39" duration="168.00" routeLength="2181.19" waitingTime="0.00" waitingCount="0" stopTime="0.00" timeLoss="8.77" rerouteNo="0" devices="tripinfo_flow_z1.0 emissions_flow_z1.0" vType="Car" speedFactor="0.99" vaporized="">
        <emissions CO_abs="1913.99" CO2_abs="332421.88" HC_abs="12.87" PMx_abs="44.83" NOx_abs="119.83" fuel_abs="107767.39" electricity_abs="0.00"/>
    </tripinfo>
    <tripinfo id="23" depart="46.00" departLane="-E16_0" departPos="5.10" departSpeed="0.00" departDelay="0.00" arrival="174.00" arrivalLane="-E29_0" arrivalPos="266.06" arrivalSpeed="8.33" duration="128.00" routeLength="1384.98" waitingTime="2.00" waitingCount="1" stopTime="0.00" timeLoss="30.57" rerouteNo="0" devices="tripinfo_23 emissions_23" vType="Car" speedFactor="1.05" vaporized="">
        <emissions CO_abs="1381.48" CO2_abs="292845.75" HC_abs="9.26" PMx_abs="32.98" NOx_abs="103.08" fuel_abs="94937.07" electricity_abs="0.00"/>
    </tripinfo>
    <tripinfo id="16" depart="32.00" departLane="E10_0" departPos="5.10" departSpeed="0.00" departDelay="0.00" arrival="177.00" arrivalLane="E7_0" arrivalPos="466.06" arrivalSpeed="14.07" duration="145.00" routeLength="1801.77" waitingTime="3.00" waitingCount="1" stopTime="0.00" timeLoss="20.05" rerouteNo="0" devices="tripinfo_16 emissions_16" vType="Car" speedFactor="1.06" vaporized="">
        <emissions CO_abs="2222.25" CO2_abs="360658.76" HC_abs="14.86" PMx_abs="39.08" NOx_abs="126.01" fuel_abs="116920.74" electricity_abs="0.00"/>
    </tripinfo>
    <tripinfo id="flow_z1.3" depart="5.00" departLane="-E1_0" departPos="5.10" departSpeed="10.50" departDelay="0.00" arrival="177.00" arrivalLane="E19_0" arrivalPos="283.20" arrivalSpeed="13.93" duration="172.00" routeLength="2181.19" waitingTime="0.00" waitingCount="0" stopTime="0.00" timeLoss="17.57" rerouteNo="0" devices="tripinfo_flow_z1.3 emissions_flow_z1.3" vType="Car" speedFactor="1.03" vaporized="">
        <emissions CO_abs="2713.30" CO2_abs="400945.65" HC_abs="18.10" PMx_abs="43.11" NOx_abs="142.67" fuel_abs="129981.30" electricity_abs="0.00"/>
    </tripinfo>
    <tripinfo id="flow_z1.1" depart="2.00" departLane="-E1_0" departPos="5.10" departSpeed="13.03" departDelay="0.33" arrival="181.00" arrivalLane="E19_0" arrivalPos="283.20" arrivalSpeed="12.14" duration="179.00" routeLength="2181.19" waitingTime="0.00" waitingCount="0" stopTime="0.00" timeLoss="10.39" rerouteNo="0" devices="tripinfo_flow_z1.1 emissions_flow_z1.1" vType="Car" speedFactor="0.94" vaporized="">
        <emissions CO_abs="1968.36" CO2_abs="362841.18" HC_abs="13.19" PMx_abs="45.20" NOx_abs="129.59" fuel_abs="117628.92" electricity_abs="0.00"/>
    </tripinfo>
    <tripinfo id="11" depart="22.00" departLane="-E33_0" departPos="5.10" departSpeed="0.00" departDelay="0.00" arrival="187.00" arrivalLane="-E2_0" arrivalPos="479.20" arrivalSpeed="14.04" duration="165.00" routeLength="2093.43" waitingTime="0.00" waitingCount="0" stopTime="0.00" timeLoss="15.64" rerouteNo="0" devices="tripinfo_11 emissions_11" vType="Car" speedFactor="1.03" vaporized="">
        <emissions CO_abs="2374.08" CO2_abs="386605.16" HC_abs="15.88" PMx_abs="43.52" NOx_abs="136.11" fuel_abs="125332.38" electricity_abs="0.00"/>
    </tripinfo>
    <tripinfo id="54" depart="108.00" departLane="-E6_0" departPos="5.10" departSpeed="0.00" departDelay="0.00" arrival="191.00" arrivalLane="E6_0" arrivalPos="466.06" arrivalSpeed="14.60" duration="83.00" routeLength="1043.03" waitingTime="0.00" waitingCount="0" stopTime="0.00" timeLoss="12.52" rerouteNo="0" devices="tripinfo_54 emissions_54" vType="Car" speedFactor="1.10" vaporized="">
        <emissions CO_abs="1422.71" CO2_abs="228218.92" HC_abs="9.52" PMx_abs="24.03" NOx_abs="78.59" fuel_abs="73985.38" electricity_abs="0.00"/>
    </tripinfo>
    <tripinfo id="flow_z2.1" depart="2.00" departLane="-E18_0" departPos="5.10" departSpeed="13.62" departDelay="0.33" arrival="191.00" arrivalLane="-E15_1" arrivalPos="479.20" arrivalSpeed="14.70" duration="189.00" routeLength="1988.38" waitingTime="25.00" waitingCount="1" stopTime="0.00" timeLoss="52.81" rerouteNo="0" devices="tripinfo_flow_z2.1 emissions_flow_z2.1" vType="Car" speedFactor="1.06" vaporized="">
        <emissions CO_abs="2381.54" CO2_abs="430688.18" HC_abs="15.90" PMx_abs="42.27" NOx_abs="153.01" fuel_abs="139623.71" electricity_abs="0.00"/>
    </tripinfo>
    <tripinfo id="flow_z1.2" depart="4.00" departLane="-E1_0" departPos="5.10" departSpeed="13.56" departDelay="0.67" arrival="193.00" arrivalLane="E19_0" arrivalPos="283.20" arrivalSpeed="8.33" duration="189.00" routeLength="2181.19" waitingTime="0.00" waitingCount="0" stopTime="0.00" timeLoss="50.36" rerouteNo="0" devices="tripinfo_flow_z1.2 emissions_flow_z1.2" vType="Car" speedFactor="1.14" vaporized="">
        <emissions CO_abs="2145.83" CO2_abs="397126.09" HC_abs="14.37" PMx_abs="47.01" NOx_abs="144.01" fuel_abs="128743.76" electricity_abs="0.00"/>
    </tripinfo>
    <tripinfo id="flow_z3.14" depart="24.00" departLane="-E28_1" departPos="5.10" departSpeed="5.36" departDelay="0.68" arrival="194.00" arrivalLane="-E29_1" arrivalPos="266.06" arrivalSpeed="12.89" duration="170.00" routeLength="1186.43" waitingTime="53.00" waitingCount="1" stopTime="0.00" timeLoss="76.30" rerouteNo="0" devices="tripinfo_flow_z3.14 emissions_flow_z3.14" vType="Car" speedFactor="0.93" vaporized="">
        <emissions CO_abs="1345.70" CO2_abs="342656.48" HC_abs="8.95" PMx_abs="23.61" NOx_abs="121.66" fuel_abs="111085.23" electricity_abs="0.00"/>
    </tripinfo>
    <tripinfo id="flow_z2.0" depart="0.00" departLane="-E18_0" departPos="5.10" departSpeed="12.79" departDelay="0.00" arrival="196.00" arrivalLane="-E15_0" arrivalPos="479.20" arrivalSpeed="11.72" duration="196.00" routeLength="1988.38" waitingTime="23.00" waitingCount="1" stopTime="0.00" timeLoss="38.43" rerouteNo="0" devices="tripinfo_flow_z2.0 emissions_flow_z2.0" vType="Car" speedFactor="0.92" vaporized="">
        <emissions CO_abs="1871.64" CO2_abs="402615.36" HC_abs="12.52" PMx_abs="41.54" NOx_abs="142.22" fuel_abs="130523.13" electricity_abs="0.00"/>
    </tripinfo>
    <tripinfo id="18" depart="36.00" departLane="E32_0" departPos="5.10" departSpeed="0.00" departDelay="0.00" arrival="198.00" arrivalLane="E17_0" arrivalPos="465.43" arrivalSpeed="12.91" duration="162.00" routeLength="1839.24" waitingTime="0.00" waitingCount="0" stopTime="0.00" timeLoss="18.87" rerouteNo="0" devices="tripinfo_18 emissions_18" vType="Car" speedFactor="0.95" vaporized="">
        <emissions CO_abs="2067.58" CO2_abs="379057.12" HC_abs="13.78" PMx_abs="38.43" NOx_abs="130.40" fuel_abs="122885.30" electricity_abs="0.00"/>
    </tripinfo>
    <tripinfo id="flow_z3.13" depart="23.00" departLane="-E28_1" departPos="5.10" departSpeed="9.21" departDelay="1.34" arrival="198.00" arrivalLane="-E29_1" arrivalPos="266.06" arrivalSpeed="11.90" duration="175.00" routeLength="1186.43" waitingTime="50.00" waitingCount="1" stopTime="0.00" timeLoss="78.09" rerouteNo="0" devices="tripinfo_flow_z3.13 emissions_flow_z3.13" vType="Car" speedFactor="0.90" vaporized="">
        <emissions CO_abs="1134.29" CO2_abs="328739.09" HC_abs="7.55" PMx_abs="23.15" NOx_abs="115.55" fuel_abs="106573.44" electricity_abs="0.00"/>
    </tripinfo>
    <tripinfo id="flow_z3.17" depart="30.00" departLane="-E28_1" departPos="5.10" departSpeed="5.98" departDelay="1.68" arrival="200.00" arrivalLane="-E29_1" arrivalPos="266.06" arrivalSpeed="14.62" duration="170.00" routeLength="1186.43" waitingTime="45.00" waitingCount="1" stopTime="0.00" timeLoss="90.37" rerouteNo="0" devices="tripinfo_flow_z3.17 emissions_flow_z3.17" vType="Car" speedFactor="1.11" vaporized="">
        <emissions CO_abs="1658.63" CO2_abs="374165.59" HC_abs="11.02" PMx_abs="25.48" NOx_abs="130.84" fuel_abs="121299.73" electricity_abs="0.00"/>
    </tripinfo>
    <tripinfo id="flow_z2.5" depart="9.00" departLane="-E18_0" departPos="5.10" departSpeed="14.16" departDelay="0.67" arrival="202.00" arrivalLane="-E15_0" arrivalPos="479.20" arrivalSpeed="7.51" duration="193.00" routeLength="1988.38" waitingTime="1.00" waitingCount="1" stopTime="0.00" timeLoss="50.76" rerouteNo="0" devices="tripinfo_flow_z2.5 emissions_flow_z2.5" vType="Car" speedFactor="1.02" vaporized="">
        <emissions CO_abs="2297.42" CO2_abs="438513.96" HC_abs="15.30" PMx_abs="40.71" NOx_abs="149.14" fuel_abs="142160.17" electricity_abs="0.00"/>
    </tripinfo>
    <tripinfo id="flow_z3.7" depart="12.00" departLane="-E28_1" departPos="5.10" departSpeed="9.90" departDelay="0.34" arrival="202.00" arrivalLane="-E29_0" arrivalPos="266.06" arrivalSpeed="8.33" duration="190.00" routeLength="1186.43" waitingTime="62.00" waitingCount="1" stopTime="0.00" timeLoss="92.77" rerouteNo="0" devices="tripinfo_flow_z3.7 emissions_flow_z3.7" vType="Car" speedFactor="0.90" vaporized="">
        <emissions CO_abs="837.62" CO2_abs="342620.52" HC_abs="5.60" PMx_abs="26.69" NOx_abs="126.07" fuel_abs="111074.38" electricity_abs="0.00"/>
    </tripinfo>
    <tripinfo id="flow_z3.10" depart="17.00" departLane="-E28_1" departPos="5.10" departSpeed="7.25" departDelay="0.34" arrival="203.00" arrivalLane="-E29_1" arrivalPos="266.06" arrivalSpeed="14.07" duration="186.00" routeLength="1186.43" waitingTime="55.00" waitingCount="1" stopTime="0.00" timeLoss="100.08" rerouteNo="0" devices="tripinfo_flow_z3.10 emissions_flow_z3.10" vType="Car" speedFactor="1.02" vaporized="">
        <emissions CO_abs="1342.45" CO2_abs="385858.45" HC_abs="8.94" PMx_abs="26.96" NOx_abs="136.24" fuel_abs="125090.84" electricity_abs="0.00"/>
    </tripinfo>
    <tripinfo id="flow_z2.10" depart="17.00" departLane="-E18_0" departPos="5.10" departSpeed="9.76" departDelay="0.34" arrival="204.00" arrivalLane="-E15_0" arrivalPos="479.20" arrivalSpeed="10.51" duration="187.00" routeLength="1988.38" waitingTime="0.00" waitingCount="0" stopTime="0.00" timeLoss="37.46" rerouteNo="0" devices="tripinfo_flow_z2.10 emissions_flow_z2.10" vType="Car" speedFactor="0.97" vaporized="">
        <emissions CO_abs="2064.00" CO2_abs="396017.91" HC_abs="13.76" PMx_abs="39.21" NOx_abs="135.71" fuel_abs="128383.79" electricity_abs="0.00"/>
    </tripinfo>
    <tripinfo id="flow_z2.2" depart="4.00" departLane="-E18_0" departPos="5.10" departSpeed="13.97" departDelay="0.67" arrival="206.00" arrivalLane="-E15_1" arrivalPos="479.20" arrivalSpeed="7.04" duration="202.00" routeLength="1988.38" waitingTime="1.00" waitingCount="1" stopTime="0.00" timeLoss="58.09" rerouteNo="0" devices="tripinfo_flow_z2.2 emissions_flow_z2.2" vType="Car" speedFactor="1.01" vaporized="">
        <emissions CO_abs="1959.08" CO2_abs="411165.96" HC_abs="13.04" PMx_abs="37.51" NOx_abs="140.05" fuel_abs="133294.48" electricity_abs="0.00"/>
    </tripinfo>
    <tripinfo id="flow_z2.15" depart="25.00" departLane="-E18_0" departPos="5.10" departSpeed="9.45" departDelay="0.01" arrival="207.00" arrivalLane="-E15_0" arrivalPos="479.20" arrivalSpeed="14.09" duration="182.00" routeLength="1988.38" waitingTime="0.00" waitingCount="0" stopTime="0.00" timeLoss="40.81" rerouteNo="0" devices="tripinfo_flow_z2.15 emissions_flow_z2.15" vType="Car" speedFactor="1.03" vaporized="">
        <emissions CO_abs="2359.80" CO2_abs="413539.01" HC_abs="15.72" PMx_abs="40.91" NOx_abs="142.57" fuel_abs="134063.85" electricity_abs="0.00"/>
    </tripinfo>
    <tripinfo id="flow_z2.4" depart="7.00" departLane="-E18_0" departPos="5.10" departSpeed="12.19" departDelay="0.34" arrival="208.00" arrivalLane="-E15_1" arrivalPos="479.20" arrivalSpeed="8.69" duration="201.00" routeLength="1984.04" waitingTime="5.00" waitingCount="2" stopTime="0.00" timeLoss="63.89" rerouteNo="0" devices="tripinfo_flow_z2.4 emissions_flow_z2.4" vType="Car" speedFactor="1.05" vaporized="">
        <emissions CO_abs="2426.08" CO2_abs="442818.17" HC_abs="16.14" PMx_abs="38.04" NOx_abs="152.36" fuel_abs="143555.56" electricity_abs="0.00"/>
    </tripinfo>
    <tripinfo id="flow_z3.15" depart="26.00" departLane="-E28_1" departPos="5.10" departSpeed="6.40" departDelay="1.01" arrival="209.00" arrivalLane="-E29_0" arrivalPos="266.06" arrivalSpeed="8.33" duration="183.00" routeLength="1186.43" waitingTime="48.00" waitingCount="2" stopTime="0.00" timeLoss="102.24" rerouteNo="0" devices="tripinfo_flow_z3.15 emissions_flow_z3.15" vType="Car" speedFactor="1.07" vaporized="">
        <emissions CO_abs="993.31" CO2_abs="351954.48" HC_abs="6.63" PMx_abs="27.56" NOx_abs="126.99" fuel_abs="114100.07" electricity_abs="0.00"/>
    </tripinfo>
    <tripinfo id="49" depart="98.00" departLane="E7_0" departPos="5.10" departSpeed="0.00" departDelay="0.00" arrival="210.00" arrivalLane="E34_0" arrivalPos="266.06" arrivalSpeed="10.86" duration="112.00" routeLength="1101.24" waitingTime="0.00" waitingCount="0" stopTime="0.00" timeLoss="11.19" rerouteNo="0" devices="tripinfo_49 emissions_49" vType="Car" speedFactor="0.81" vaporized="">
        <emissions CO_abs="896.54" CO2_abs="225590.32" HC_abs="5.98" PMx_abs="22.91" NOx_abs="76.96" fuel_abs="73133.60" electricity_abs="0.00"/>
    </tripinfo>
    <tripinfo id="flow_z2.7" depart="12.00" departLane="-E18_0" departPos="5.10" departSpeed="9.59" departDelay="0.34" arrival="210.00" arrivalLane="-E15_0" arrivalPos="479.20" arrivalSpeed="12.75" duration="198.00" routeLength="1984.04" waitingTime="0.00" waitingCount="0" stopTime="0.00" timeLoss="42.49" rerouteNo="0" devices="tripinfo_flow_z2.7 emissions_flow_z2.7" vType="Car" speedFactor="0.93" vaporized="">
        <emissions CO_abs="1796.43" CO2_abs="388850.68" HC_abs="12.00" PMx_abs="40.75" NOx_abs="134.23" fuel_abs="126060.56" electricity_abs="0.00"/>
    </tripinfo>
    <tripinfo id="flow_z2.9" depart="15.00" departLane="-E18_0" departPos="5.10" departSpeed="8.06" departDelay="0.01" arrival="210.00" arrivalLane="-E15_1" arrivalPos="479.20" arrivalSpeed="13.03" duration="195.00" routeLength="1984.04" waitingTime="0.00" waitingCount="0" stopTime="0.00" timeLoss="60.88" rerouteNo="0" devices="tripinfo_flow_z2.9 emissions_flow_z2.9" vType="Car" speedFactor="1.08" vaporized="">
        <emissions CO_abs="2451.74" CO2_abs="438077.93" HC_abs="16.32" PMx_abs="39.98" NOx_abs="148.82" fuel_abs="142018.73" electricity_abs="0.00"/>
    </tripinfo>
    <tripinfo id="flow_z3.26" depart="49.00" departLane="-E28_1" departPos="5.10" departSpeed="5.54" departDelay="5.68" arrival="214.00" arrivalLane="-E29_1" arrivalPos="266.06" arrivalSpeed="11.85" duration="165.00" routeLength="1186.43" waitingTime="36.00" waitingCount="1" stopTime="0.00" timeLoss="65.23" rerouteNo="0" devices="tripinfo_flow_z3.26 emissions_flow_z3.26" vType="Car" speedFactor="0.88" vaporized="">
        <emissions CO_abs="1225.16" CO2_abs="327949.02" HC_abs="8.14" PMx_abs="23.56" NOx_abs="113.53" fuel_abs="106317.11" electricity_abs="0.00"/>
    </tripinfo>
    <tripinfo id="flow_z3.20" depart="36.00" departLane="-E28_1" departPos="5.10" departSpeed="8.50" departDelay="2.68" arrival="215.00" arrivalLane="-E29_1" arrivalPos="266.06" arrivalSpeed="13.91" duration="179.00" routeLength="1186.43" waitingTime="39.00" waitingCount="1" stopTime="0.00" timeLoss="102.92" rerouteNo="0" devices="tripinfo_flow_z3.20 emissions_flow_z3.20" vType="Car" speedFactor="1.14" vaporized="">
        <emissions CO_abs="1658.03" CO2_abs="393541.47" HC_abs="10.98" PMx_abs="24.03" NOx_abs="134.16" fuel_abs="127580.81" electricity_abs="0.00"/>
    </tripinfo>
    <tripinfo id="flow_z3.21" depart="37.00" departLane="-E28_1" departPos="5.10" departSpeed="4.58" departDelay="2.01" arrival="217.00" arrivalLane="-E29_0" arrivalPos="266.06" arrivalSpeed="9.70" duration="180.00" routeLength="1186.43" waitingTime="39.00" waitingCount="1" stopTime="0.00" timeLoss="56.99" rerouteNo="0" devices="tripinfo_flow_z3.21 emissions_flow_z3.21" vType="Car" speedFactor="0.71" vaporized="">
        <emissions CO_abs="790.53" CO2_abs="311440.26" HC_abs="5.27" PMx_abs="23.15" NOx_abs="109.04" fuel_abs="100965.59" electricity_abs="0.00"/>
    </tripinfo>
    <tripinfo id="flow_z3.25" depart="47.00" departLane="-E28_1" departPos="5.10" departSpeed="6.10" departDelay="5.35" arrival="217.00" arrivalLane="-E29_1" arrivalPos="266.06" arrivalSpeed="11.77" duration="170.00" routeLength="1186.43" waitingTime="35.00" waitingCount="1" stopTime="0.00" timeLoss="69.75" rerouteNo="0" devices="tripinfo_flow_z3.25 emissions_flow_z3.25" vType="Car" speedFactor="0.87" vaporized="">
        <emissions CO_abs="1204.34" CO2_abs="330938.30" HC_abs="7.99" PMx_abs="22.55" NOx_abs="113.48" fuel_abs="107286.10" electricity_abs="0.00"/>
    </tripinfo>
    <tripinfo id="41" depart="82.00" departLane="E14_0" departPos="5.10" departSpeed="0.00" departDelay="0.00" arrival="218.00" arrivalLane="E37_0" arrivalPos="266.06" arrivalSpeed="12.42" duration="136.00" routeLength="1537.42" waitingTime="0.00" waitingCount="0" stopTime="0.00" timeLoss="17.78" rerouteNo="0" devices="tripinfo_41 emissions_41" vType="Car" speedFactor="0.94" vaporized="">
        <emissions CO_abs="1682.17" CO2_abs="321266.51" HC_abs="11.23" PMx_abs="32.77" NOx_abs="110.13" fuel_abs="104150.36" electricity_abs="0.00"/>
    </tripinfo>
    <tripinfo id="flow_z2.8" depart="14.00" departLane="-E18_0" departPos="5.10" departSpeed="11.12" departDelay="0.67" arrival="218.00" arrivalLane="-E15_0" arrivalPos="479.20" arrivalSpeed="13.98" duration="204.00" routeLength="1984.04" waitingTime="2.00" waitingCount="2" stopTime="0.00" timeLoss="59.82" rerouteNo="0" devices="tripinfo_flow_z2.8 emissions_flow_z2.8" vType="Car" speedFactor="1.01" vaporized="">
        <emissions CO_abs="1982.99" CO2_abs="411363.75" HC_abs="13.24" PMx_abs="40.69" NOx_abs="142.19" fuel_abs="133358.85" electricity_abs="0.00"/>
    </tripinfo>
    <tripinfo id="flow_z3.11" depart="19.00" departLane="-E28_1" departPos="5.10" departSpeed="7.56" departDelay="0.67" arrival="220.00" arrivalLane="-E29_1" arrivalPos="266.06" arrivalSpeed="14.25" duration="201.00" routeLength="1186.43" waitingTime="57.00" waitingCount="3" stopTime="0.00" timeLoss="121.91" rerouteNo="0" devices="tripinfo_flow_z3.11 emissions_flow_z3.11" vType="Car" speedFactor="1.10" vaporized="">
        <emissions CO_abs="1519.79" CO2_abs="425362.35" HC_abs="10.09" PMx_abs="25.13" NOx_abs="146.45" fuel_abs="137897.03" electricity_abs="0.00"/>
    </tripinfo>
    <tripinfo id="flow_z3.33" depart="62.00" departLane="-E28_1" departPos="5.10" departSpeed="3.68" departDelay="7.02" arrival="221.00" arrivalLane="-E29_0" arrivalPos="266.06" arrivalSpeed="12.17" duration="159.00" routeLength="1186.43" waitingTime="30.00" waitingCount="1" stopTime="0.00" timeLoss="60.53" rerouteNo="0" devices="tripinfo_flow_z3.33 emissions_flow_z3.33" vType="Car" speedFactor="0.89" vaporized="">
        <emissions CO_abs="1372.27" CO2_abs="347286.23" HC_abs="9.11" PMx_abs="25.20" NOx_abs="118.99" fuel_abs="112585.67" electricity_abs="0.00"/>
    </tripinfo>