<?xml version="1.0" encoding="UTF-8"?>

<!-- generated on 2026-05-30T18:28:47.690424+00:00 by Eclipse SUMO sumo 1.26.0
<sumoConfiguration xmlns:xsi="http://www.w3.org/2001/XMLSchema-instance" xsi:noNamespaceSchemaLocation="http://sumo.dlr.de/xsd/sumoConfiguration.xsd">

    <input>
        <net-file value="manhattan.net.xml"/>
        <route-files value="routes.rou.xml,background.rou.xml"/>
        <additional-files value="mosaic_types.add.xml"/>
    </input>

    <output>
        <tripinfo-output value="/home/netsim/opt/tpnpr/tripinfo.xml"/>
    </output>

    <time>
        <begin value="0"/>
        <end value="3600"/>
        <step-length value="1.00"/>
    </time>

    <processing>
        <ignore-route-errors value="true"/>
        <time-to-teleport value="0"/>
    </processing>

    <report>
        <verbose value="true"/>
        <no-step-log value="true"/>
    </report>

    <emissions>
        <device.emissions.probability value="1.0"/>
    </emissions>

    <traci_server>
        <remote-port value="35229"/>
    </traci_server>

    <random_number>
        <seed value="100000"/>
    </random_number>

</sumoConfiguration>
-->

<tripinfos xmlns:xsi="http://www.w3.org/2001/XMLSchema-instance" xsi:noNamespaceSchemaLocation="http://sumo.dlr.de/xsd/tripinfo_file.xsd">
    <tripinfo id="13" depart="26.00" departLane="-E15_0" departPos="5.10" departSpeed="0.00" departDelay="0.00" arrival="64.00" arrivalLane="-E15_0" arrivalPos="479.20" arrivalSpeed="14.54" duration="38.00" routeLength="474.10" waitingTime="0.00" waitingCount="0" stopTime="0.00" timeLoss="5.26" rerouteNo="0" devices="tripinfo_13 emissions_13" vType="Car" speedFactor="1.06" vaporized="">
        <emissions CO_abs="623.73" CO2_abs="106235.53" HC_abs="4.17" PMx_abs="11.46" NOx_abs="36.52" fuel_abs="34440.08" electricity_abs="0.00"/>
    </tripinfo>
    <tripinfo id="22" depart="44.00" departLane="-E14_0" departPos="5.10" departSpeed="0.00" departDelay="0.00" arrival="88.00" arrivalLane="-E25_0" arrivalPos="279.20" arrivalSpeed="13.77" duration="44.00" routeLength="574.10" waitingTime="0.00" waitingCount="0" stopTime="0.00" timeLoss="5.37" rerouteNo="0" devices="tripinfo_22 emissions_22" vType="Car" speedFactor="1.08" vaporized="">
        <emissions CO_abs="774.99" CO2_abs="122112.22" HC_abs="5.18" PMx_abs="13.30" NOx_abs="42.37" fuel_abs="39587.07" electricity_abs="0.00"/>
    </tripinfo>
    <tripinfo id="flow_z3.0" depart="0.00" departLane="-E28_1" departPos="5.10" departSpeed="12.68" departDelay="0.00" arrival="104.00" arrivalLane="-E29_0" arrivalPos="266.06" arrivalSpeed="11.39" duration="104.00" routeLength="1186.43" waitingTime="0.00" waitingCount="0" stopTime="0.00" timeLoss="8.14" rerouteNo="0" devices="tripinfo_flow_z3.0 emissions_flow_z3.0" vType="Car" speedFactor="0.91" vaporized="">
        <emissions CO_abs="940.16" CO2_abs="193464.14" HC_abs="6.30" PMx_abs="23.26" NOx_abs="68.25" fuel_abs="62718.85" electricity_abs="0.00"/>
    </tripinfo>
    <tripinfo id="flow_z3.2" depart="2.00" departLane="-E28_1" departPos="5.10" departSpeed="5.68" departDelay="0.33" arrival="104.00" arrivalLane="-E29_1" arrivalPos="266.06" arrivalSpeed="12.67" duration="102.00" routeLength="1186.43" waitingTime="0.00" waitingCount="0" stopTime="0.00" timeLoss="13.51" rerouteNo="0" devices="tripinfo_flow_z3.2 emissions_flow_z3.2" vType="Car" speedFactor="0.99" vaporized="">
        <emissions CO_abs="1380.40" CO2_abs="234125.60" HC_abs="9.20" PMx_abs="24.10" NOx_abs="81.58" fuel_abs="75900.46" electricity_abs="0.00"/>
    </tripinfo>
    <tripinfo id="flow_z3.1" depart="1.00" departLane="-E28_1" departPos="5.10" departSpeed="10.10" departDelay="0.17" arrival="109.00" arrivalLane="-E29_0" arrivalPos="266.06" arrivalSpeed="12.31" duration="108.00" routeLength="1186.43" waitingTime="0.00" waitingCount="0" stopTime="0.00" timeLoss="10.99" rerouteNo="0" devices="tripinfo_flow_z3.1 emissions_flow_z3.1" vType="Car" speedFactor="0.90" vaporized="">
        <emissions CO_abs="1152.25" CO2_abs="228461.53" HC_abs="7.69" PMx_abs="24.91" NOx_abs="79.71" fuel_abs="74064.45" electricity_abs="0.00"/>
    </tripinfo>
    <tripinfo id="flow_z3.3" depart="4.00" departLane="-E28_1" departPos="5.10" departSpeed="5.55" departDelay="1.50" arrival="110.00" arrivalLane="-E29_1" arrivalPos="266.06" arrivalSpeed="13.69" duration="106.00" routeLength="1186.43" waitingTime="0.00" waitingCount="0" stopTime="0.00" timeLoss="17.34" rerouteNo="0" devices="tripinfo_flow_z3.3 emissions_flow_z3.3" vType="Car" speedFactor="0.99" vaporized="">
        <emissions CO_abs="1504.03" CO2_abs="253733.28" HC_abs="10.01" PMx_abs="24.39" NOx_abs="87.65" fuel_abs="82256.91" electricity_abs="0.00"/>
    </tripinfo>
    <tripinfo id="flow_z3.4" depart="6.00" departLane="-E28_1" departPos="5.10" departSpeed="4.72" departDelay="2.67" arrival="112.00" arrivalLane="-E29_0" arrivalPos="266.06" arrivalSpeed="13.78" duration="106.00" routeLength="1186.43" waitingTime="0.00" waitingCount="0" stopTime="0.00" timeLoss="18.91" rerouteNo="0" devices="tripinfo_flow_z3.4 emissions_flow_z3.4" vType="Car" speedFactor="1.01" vaporized="">
        <emissions CO_abs="1534.38" CO2_abs="254429.89" HC_abs="10.21" PMx_abs="24.51" NOx_abs="88.26" fuel_abs="82482.75" electricity_abs="0.00"/>
    </tripinfo>
    <tripinfo id="flow_z3.6" depart="10.00" departLane="-E28_1" departPos="5.10" departSpeed="2.18" departDelay="5.00" arrival="115.00" arrivalLane="-E29_1" arrivalPos="266.06" arrivalSpeed="14.20" duration="105.00" routeLength="1186.43" waitingTime="0.00" waitingCount="0" stopTime="0.00" timeLoss="26.05" rerouteNo="0" devices="tripinfo_flow_z3.6 emissions_flow_z3.6" vType="Car" speedFactor="1.10" vaporized="">
        <emissions CO_abs="1743.55" CO2_abs="283294.78" HC_abs="11.60" PMx_abs="25.95" NOx_abs="96.71" fuel_abs="91840.13" electricity_abs="0.00"/>
    </tripinfo>
    <tripinfo id="flow_z3.5" depart="8.00" departLane="-E28_1" departPos="5.10" departSpeed="3.73" departDelay="3.84" arrival="116.00" arrivalLane="-E29_0" arrivalPos="266.06" arrivalSpeed="12.27" duration="108.00" routeLength="1186.43" waitingTime="0.00" waitingCount="0" stopTime="0.00" timeLoss="12.78" rerouteNo="0" devices="tripinfo_flow_z3.5 emissions_flow_z3.5" vType="Car" speedFactor="0.92" vaporized="">
        <emissions CO_abs="1186.62" CO2_abs="223007.13" HC_abs="7.91" PMx_abs="22.89" NOx_abs="76.70" fuel_abs="72296.01" electricity_abs="0.00"/>
    </tripinfo>
    <tripinfo id="21" depart="42.00" departLane="-E25_0" departPos="5.10" departSpeed="0.00" departDelay="0.00" arrival="121.00" arrivalLane="-E3_0" arrivalPos="483.20" arrivalSpeed="14.86" duration="79.00" routeLength="1079.36" waitingTime="0.00" waitingCount="0" stopTime="0.00" timeLoss="7.43" rerouteNo="0" devices="tripinfo_21 emissions_21" vType="Car" speedFactor="1.10" vaporized="">
        <emissions CO_abs="1345.62" CO2_abs="201735.78" HC_abs="9.01" PMx_abs="23.62" NOx_abs="71.35" fuel_abs="65400.04" electricity_abs="0.00"/>
    </tripinfo>
    <tripinfo id="30" depart="60.00" departLane="E9_0" departPos="5.10" departSpeed="0.00" departDelay="0.00" arrival="135.00" arrivalLane="E19_0" arrivalPos="283.20" arrivalSpeed="14.73" duration="75.00" routeLength="878.10" waitingTime="4.00" waitingCount="1" stopTime="0.00" timeLoss="16.18" rerouteNo="0" devices="tripinfo_30 emissions_30" vType="Car" speedFactor="1.08" vaporized="">
        <emissions CO_abs="1179.10" CO2_abs="200133.37" HC_abs="7.89" PMx_abs="20.21" NOx_abs="68.98" fuel_abs="64880.45" electricity_abs="0.00"/>
    </tripinfo>
    <tripinfo id="4" depart="8.00" departLane="-E39_0" departPos="5.10" departSpeed="0.00" departDelay="0.00" arrival="142.00" arrivalLane="-E10_0" arrivalPos="479.20" arrivalSpeed="11.81" duration="134.00" routeLength="1552.66" waitingTime="0.00" waitingCount="0" stopTime="0.00" timeLoss="12.27" rerouteNo="0" devices="tripinfo_4 emissions_4" vType="Car" speedFactor="0.93" vaporized="">
        <emissions CO_abs="1484.48" CO2_abs="288488.87" HC_abs="9.93" PMx_abs="32.03" NOx_abs="100.14" fuel_abs="93524.47" electricity_abs="0.00"/>
    </tripinfo>
    <tripinfo id="12" depart="24.00" departLane="E6_0" departPos="5.10" departSpeed="0.00" departDelay="0.00" arrival="147.00" arrivalLane="-E32_0" arrivalPos="266.06" arrivalSpeed="10.91" duration="123.00" routeLength="1239.52" waitingTime="0.00" waitingCount="0" stopTime="0.00" timeLoss="12.34" rerouteNo="0" devices="tripinfo_12 emissions_12" vType="Car" speedFactor="0.81" vaporized="">
        <emissions CO_abs="946.19" CO2_abs="242067.21" HC_abs="6.32" PMx_abs="25.73" NOx_abs="83.26" fuel_abs="78475.30" electricity_abs="0.00"/>
    </tripinfo>
    <tripinfo id="1" depart="2.00" departLane="-E29_0" departPos="5.10" departSpeed="0.00" departDelay="0.00" arrival="153.00" arrivalLane="-E24_0" arrivalPos="283.20" arrivalSpeed="13.16" duration="151.00" routeLength="1942.97" waitingTime="0.00" waitingCount="0" stopTime="0.00" timeLoss="15.21" rerouteNo="0" devices="tripinfo_1 emissions_1" vType="Car" speedFactor="1.04" vaporized="">
        <emissions CO_abs="2241.46" CO2_abs="360847.02" HC_abs="15.00" PMx_abs="41.31" NOx_abs="126.76" fuel_abs="116981.87" electricity_abs="0.00"/>
    </tripinfo>
    <tripinfo id="23" depart="46.00" departLane="-E16_0" departPos="5.10" departSpeed="0.00" departDelay="0.00" arrival="160.00" arrivalLane="-E29_0" arrivalPos="266.06" arrivalSpeed="14.11" duration="114.00" routeLength="1384.98" waitingTime="1.00" waitingCount="1" stopTime="0.00" timeLoss="19.40" rerouteNo="0" devices="tripinfo_23 emissions_23" vType="Car" speedFactor="1.07" vaporized="">
        <emissions CO_abs="1809.62" CO2_abs="297935.99" HC_abs="12.11" PMx_abs="31.24" NOx_abs="103.14" fuel_abs="96586.76" electricity_abs="0.00"/>
    </tripinfo>
    <tripinfo id="48" depart="96.00" departLane="E9_0" departPos="5.10" departSpeed="0.00" departDelay="0.00" arrival="162.00" arrivalLane="E10_0" arrivalPos="479.20" arrivalSpeed="13.91" duration="66.00" routeLength="772.65" waitingTime="0.00" waitingCount="0" stopTime="0.00" timeLoss="8.67" rerouteNo="0" devices="tripinfo_48 emissions_48" vType="Car" speedFactor="1.00" vaporized="">
        <emissions CO_abs="992.90" CO2_abs="168199.71" HC_abs="6.61" PMx_abs="16.04" NOx_abs="57.44" fuel_abs="54527.95" electricity_abs="0.00"/>
    </tripinfo>
    <tripinfo id="flow_z1.2" depart="2.00" departLane="-E1_0" departPos="5.10" departSpeed="7.75" departDelay="0.33" arrival="165.00" arrivalLane="E19_0" arrivalPos="283.20" arrivalSpeed="14.74" duration="163.00" routeLength="2181.19" waitingTime="0.00" waitingCount="0" stopTime="0.00" timeLoss="24.49" rerouteNo="0" devices="tripinfo_flow_z1.2 emissions_flow_z1.2" vType="Car" speedFactor="1.14" vaporized="">
        <emissions CO_abs="2768.53" CO2_abs="400591.98" HC_abs="18.52" PMx_abs="46.72" NOx_abs="143.51" fuel_abs="129866.73" electricity_abs="0.00"/>
    </tripinfo>
    <tripinfo id="flow_z1.0" depart="0.00" departLane="-E1_0" departPos="5.10" departSpeed="13.81" departDelay="0.00" arrival="169.00" arrivalLane="E19_0" arrivalPos="283.20" arrivalSpeed="12.78" duration="169.00" routeLength="2181.19" waitingTime="0.00" waitingCount="0" stopTime="0.00" timeLoss="9.58" rerouteNo="0" devices="tripinfo_flow_z1.0 emissions_flow_z1.0" vType="Car" speedFactor="0.99" vaporized="">
        <emissions CO_abs="2117.23" CO2_abs="350729.64" HC_abs="14.20" PMx_abs="44.35" NOx_abs="125.85" fuel_abs="113702.37" electricity_abs="0.00"/>
    </tripinfo>
    <tripinfo id="flow_z3.8" depart="15.00" departLane="-E28_1" departPos="5.10" departSpeed="0.86" departDelay="8.34" arrival="173.00" arrivalLane="-E29_0" arrivalPos="266.06" arrivalSpeed="14.83" duration="158.00" routeLength="1186.43" waitingTime="56.00" waitingCount="2" stopTime="0.00" timeLoss="76.37" rerouteNo="0" devices="tripinfo_flow_z3.8 emissions_flow_z3.8" vType="Car" speedFactor="1.07" vaporized="">
        <emissions CO_abs="1609.85" CO2_abs="360085.70" HC_abs="10.77" PMx_abs="28.51" NOx_abs="128.69" fuel_abs="116735.54" electricity_abs="0.00"/>
    </tripinfo>
    <tripinfo id="flow_z1.3" depart="4.00" departLane="-E1_0" departPos="5.10" departSpeed="8.02" departDelay="1.50" arrival="174.00" arrivalLane="E19_0" arrivalPos="283.20" arrivalSpeed="14.07" duration="170.00" routeLength="2181.19" waitingTime="0.00" waitingCount="0" stopTime="0.00" timeLoss="15.84" rerouteNo="0" devices="tripinfo_flow_z1.3 emissions_flow_z1.3" vType="Car" speedFactor="1.03" vaporized="">
        <emissions CO_abs="2326.41" CO2_abs="378233.83" HC_abs="15.59" PMx_abs="45.97" NOx_abs="135.19" fuel_abs="122618.78" electricity_abs="0.00"/>
    </tripinfo>
    <tripinfo id="flow_z1.1" depart="1.00" departLane="-E1_0" departPos="5.10" departSpeed="10.93" departDelay="0.17" arrival="177.00" arrivalLane="E19_0" arrivalPos="283.20" arrivalSpeed="13.18" duration="176.00" routeLength="2181.19" waitingTime="0.00" waitingCount="0" stopTime="0.00" timeLoss="10.19" rerouteNo="0" devices="tripinfo_flow_z1.1 emissions_flow_z1.1" vType="Car" speedFactor="0.96" vaporized="">
        <emissions CO_abs="1963.67" CO2_abs="358820.38" HC_abs="13.18" PMx_abs="46.11" NOx_abs="128.51" fuel_abs="116325.46" electricity_abs="0.00"/>
    </tripinfo>
    <tripinfo id="16" depart="32.00" departLane="E10_0" departPos="5.10" departSpeed="0.00" departDelay="0.00" arrival="177.00" arrivalLane="E7_0" arrivalPos="466.06" arrivalSpeed="14.32" duration="145.00" routeLength="1801.77" waitingTime="2.00" waitingCount="1" stopTime="0.00" timeLoss="18.71" rerouteNo="0" devices="tripinfo_16 emissions_16" vType="Car" speedFactor="1.05" vaporized="">
        <emissions CO_abs="2253.30" CO2_abs="372055.33" HC_abs="15.07" PMx_abs="40.62" NOx_abs="129.80" fuel_abs="120615.31" electricity_abs="0.00"/>
    </tripinfo>
    <tripinfo id="36" depart="72.00" departLane="E36_0" departPos="5.10" departSpeed="0.00" departDelay="0.00" arrival="178.00" arrivalLane="-E31_0" arrivalPos="279.20" arrivalSpeed="16.72" duration="106.00" routeLength="1568.07" waitingTime="0.00" waitingCount="0" stopTime="0.00" timeLoss="14.07" rerouteNo="0" devices="tripinfo_36 emissions_36" vType="Car" speedFactor="1.27" vaporized="">
        <emissions CO_abs="3017.90" CO2_abs="363155.46" HC_abs="20.18" PMx_abs="39.26" NOx_abs="130.95" fuel_abs="117729.73" electricity_abs="0.00"/>
    </tripinfo>
    <tripinfo id="flow_z1.4" depart="6.00" departLane="-E1_0" departPos="5.10" departSpeed="9.40" departDelay="2.67" arrival="178.00" arrivalLane="E19_1" arrivalPos="283.20" arrivalSpeed="12.83" duration="172.00" routeLength="2181.19" waitingTime="0.00" waitingCount="0" stopTime="0.00" timeLoss="14.71" rerouteNo="0" devices="tripinfo_flow_z1.4 emissions_flow_z1.4" vType="Car" speedFactor="1.00" vaporized="">
        <emissions CO_abs="2406.29" CO2_abs="381480.98" HC_abs="16.09" PMx_abs="44.18" NOx_abs="136.13" fuel_abs="123671.35" electricity_abs="0.00"/>
    </tripinfo>
    <tripinfo id="49" depart="98.00" departLane="E7_0" departPos="5.10" departSpeed="0.00" departDelay="0.00" arrival="179.00" arrivalLane="E34_0" arrivalPos="266.06" arrivalSpeed="15.27" duration="81.00" routeLength="1101.24" waitingTime="0.00" waitingCount="0" stopTime="0.00" timeLoss="8.93" rerouteNo="0" devices="tripinfo_49 emissions_49" vType="Car" speedFactor="1.13" vaporized="">
        <emissions CO_abs="1520.14" CO2_abs="218535.94" HC_abs="10.18" PMx_abs="24.48" NOx_abs="77.28" fuel_abs="70846.34" electricity_abs="0.00"/>
    </tripinfo>
    <tripinfo id="flow_z3.7" depart="13.00" departLane="-E28_1" departPos="5.10" departSpeed="3.08" departDelay="7.17" arrival="186.00" arrivalLane="-E29_0" arrivalPos="266.06" arrivalSpeed="11.26" duration="173.00" routeLength="1186.43" waitingTime="61.00" waitingCount="1" stopTime="0.00" timeLoss="75.85" rerouteNo="0" devices="tripinfo_flow_z3.7 emissions_flow_z3.7" vType="Car" speedFactor="0.90" vaporized="">
        <emissions CO_abs="1185.18" CO2_abs="336481.38" HC_abs="7.90" PMx_abs="24.03" NOx_abs="120.43" fuel_abs="109083.62" electricity_abs="0.00"/>
    </tripinfo>
    <tripinfo id="flow_z3.11" depart="23.00" departLane="-E28_1" departPos="5.10" departSpeed="5.86" departDelay="13.84" arrival="189.00" arrivalLane="-E29_1" arrivalPos="266.06" arrivalSpeed="13.70" duration="166.00" routeLength="1186.43" waitingTime="49.00" waitingCount="1" stopTime="0.00" timeLoss="84.01" rerouteNo="0" devices="tripinfo_flow_z3.11 emissions_flow_z3.11" vType="Car" speedFactor="1.06" vaporized="">
        <emissions CO_abs="1678.03" CO2_abs="370511.04" HC_abs="11.16" PMx_abs="25.48" NOx_abs="130.09" fuel_abs="120115.00" electricity_abs="0.00"/>
    </tripinfo>
    <tripinfo id="flow_z3.13" depart="27.00" departLane="-E28_1" departPos="5.10" departSpeed="6.97" departDelay="16.17" arrival="189.00" arrivalLane="-E29_0" arrivalPos="266.06" arrivalSpeed="11.59" duration="162.00" routeLength="1186.43" waitingTime="50.00" waitingCount="1" stopTime="0.00" timeLoss="64.24" rerouteNo="0" devices="tripinfo_flow_z3.13 emissions_flow_z3.13" vType="Car" speedFactor="0.90" vaporized="">
        <emissions CO_abs="1209.87" CO2_abs="316686.39" HC_abs="8.06" PMx_abs="23.61" NOx_abs="113.11" fuel_abs="102666.14" electricity_abs="0.00"/>
    </tripinfo>
    <tripinfo id="flow_z2.1" depart="1.00" departLane="-E18_0" departPos="5.10" departSpeed="9.58" departDelay="0.17" arrival="192.00" arrivalLane="-E15_0" arrivalPos="479.20" arrivalSpeed="13.83" duration="191.00" routeLength="1988.38" waitingTime="36.00" waitingCount="1" stopTime="0.00" timeLoss="53.74" rerouteNo="0" devices="tripinfo_flow_z2.1 emissions_flow_z2.1" vType="Car" speedFactor="1.06" vaporized="">
        <emissions CO_abs="2443.72" CO2_abs="437672.11" HC_abs="16.35" PMx_abs="44.34" NOx_abs="157.36" fuel_abs="141888.05" electricity_abs="0.00"/>
    </tripinfo>
    <tripinfo id="18" depart="36.00" departLane="E32_0" departPos="5.10" departSpeed="0.00" departDelay="0.00" arrival="193.00" arrivalLane="E17_0" arrivalPos="465.43" arrivalSpeed="13.13" duration="157.00" routeLength="1839.24" waitingTime="0.00" waitingCount="0" stopTime="0.00" timeLoss="15.31" rerouteNo="0" devices="tripinfo_18 emissions_18" vType="Car" speedFactor="0.96" vaporized="">
        <emissions CO_abs="2100.12" CO2_abs="372124.06" HC_abs="14.02" PMx_abs="39.42" NOx_abs="128.77" fuel_abs="120637.74" electricity_abs="0.00"/>
    </tripinfo>
    <tripinfo id="flow_z3.14" depart="29.00" departLane="-E28_1" departPos="5.10" departSpeed="8.13" departDelay="17.34" arrival="193.00" arrivalLane="-E29_0" arrivalPos="266.06" arrivalSpeed="12.54" duration="164.00" routeLength="1186.43" waitingTime="43.00" waitingCount="1" stopTime="0.00" timeLoss="70.37" rerouteNo="0" devices="tripinfo_flow_z3.14 emissions_flow_z3.14" vType="Car" speedFactor="0.93" vaporized="">
        <emissions CO_abs="1450.55" CO2_abs="352265.72" HC_abs="9.65" PMx_abs="25.74" NOx_abs="123.35" fuel_abs="114200.23" electricity_abs="0.00"/>
    </tripinfo>
    <tripinfo id="flow_z3.17" depart="35.00" departLane="-E28_1" departPos="5.10" departSpeed="2.58" departDelay="20.84" arrival="195.00" arrivalLane="-E29_0" arrivalPos="266.06" arrivalSpeed="12.91" duration="160.00" routeLength="1186.43" waitingTime="41.00" waitingCount="1" stopTime="0.00" timeLoss="69.23" rerouteNo="0" devices="tripinfo_flow_z3.17 emissions_flow_z3.17" vType="Car" speedFactor="0.96" vaporized="">
        <emissions CO_abs="1544.15" CO2_abs="365202.08" HC_abs="10.27" PMx_abs="26.48" NOx_abs="127.23" fuel_abs="118393.90" electricity_abs="0.00"/>
    </tripinfo>
    <tripinfo id="flow_z2.0" depart="0.00" departLane="-E18_0" departPos="5.10" departSpeed="12.79" departDelay="0.00" arrival="196.00" arrivalLane="-E15_0" arrivalPos="479.20" arrivalSpeed="12.74" duration="196.00" routeLength="1988.38" waitingTime="20.00" waitingCount="1" stopTime="0.00" timeLoss="38.86" rerouteNo="0" devices="tripinfo_flow_z2.0 emissions_flow_z2.0" vType="Car" speedFactor="0.92" vaporized="">
        <emissions CO_abs="1896.94" CO2_abs="403555.33" HC_abs="12.69" PMx_abs="40.90" NOx_abs="142.26" fuel_abs="130827.81" electricity_abs="0.00"/>
    </tripinfo>
    <tripinfo id="flow_z3.18" depart="38.00" departLane="-E28_1" departPos="5.10" departSpeed="4.76" departDelay="23.01" arrival="196.00" arrivalLane="-E29_1" arrivalPos="266.06" arrivalSpeed="14.38" duration="158.00" routeLength="1186.43" waitingTime="38.00" waitingCount="2" stopTime="0.00" timeLoss="74.39" rerouteNo="0" devices="tripinfo_flow_z3.18 emissions_flow_z3.18" vType="Car" speedFactor="1.04" vaporized="">
        <emissions CO_abs="1891.12" CO2_abs="390354.84" HC_abs="12.57" PMx_abs="27.46" NOx_abs="135.15" fuel_abs="126547.83" electricity_abs="0.00"/>
    </tripinfo>
    <tripinfo id="54" depart="108.00" departLane="-E6_0" departPos="5.10" departSpeed="0.00" departDelay="0.00" arrival="197.00" arrivalLane="E6_1" arrivalPos="466.06" arrivalSpeed="12.47" duration="89.00" routeLength="1043.03" waitingTime="0.00" waitingCount="0" stopTime="0.00" timeLoss="9.73" rerouteNo="0" devices="tripinfo_54 emissions_54" vType="Car" speedFactor="0.98" vaporized="">
        <emissions CO_abs="1127.34" CO2_abs="204877.33" HC_abs="7.53" PMx_abs="21.35" NOx_abs="70.42" fuel_abs="66418.49" electricity_abs="0.00"/>
    </tripinfo>
    <tripinfo id="flow_z2.3" depart="4.00" departLane="-E18_0" departPos="5.10" departSpeed="5.54" departDelay="1.50" arrival="197.00" arrivalLane="-E15_1" arrivalPos="479.20" arrivalSpeed="9.50" duration="193.00" routeLength="1984.04" waitingTime="21.00" waitingCount="2" stopTime="0.00" timeLoss="54.90" rerouteNo="0" devices="tripinfo_flow_z2.3 emissions_flow_z2.3" vType="Car" speedFactor="1.05" vaporized="">
        <emissions CO_abs="2614.75" CO2_abs="462425.74" HC_abs="17.42" PMx_abs="42.11" NOx_abs="162.81" fuel_abs="149912.30" electricity_abs="0.00"/>
    </tripinfo>
    <tripinfo id="flow_z3.9" depart="19.00" departLane="-E28_1" departPos="5.10" departSpeed="5.82" departDelay="11.50" arrival="197.00" arrivalLane="-E29_0" arrivalPos="266.06" arrivalSpeed="15.53" duration="178.00" routeLength="1186.43" waitingTime="56.00" waitingCount="3" stopTime="0.00" timeLoss="106.07" rerouteNo="0" devices="tripinfo_flow_z3.9 emissions_flow_z3.9" vType="Car" speedFactor="1.21" vaporized="">
        <emissions CO_abs="1998.31" CO2_abs="427375.42" HC_abs="13.26" PMx_abs="26.11" NOx_abs="149.73" fuel_abs="138549.51" electricity_abs="0.00"/>
    </tripinfo>
    <tripinfo id="flow_z2.4" depart="6.00" departLane="-E18_0" departPos="5.10" departSpeed="5.64" departDelay="2.67" arrival="199.00" arrivalLane="-E15_1" arrivalPos="479.20" arrivalSpeed="11.25" duration="193.00" routeLength="1988.38" waitingTime="18.00" waitingCount="2" stopTime="0.00" timeLoss="55.83" rerouteNo="0" devices="tripinfo_flow_z2.4 emissions_flow_z2.4" vType="Car" speedFactor="1.05" vaporized="">
        <emissions CO_abs="2799.60" CO2_abs="477656.55" HC_abs="18.64" PMx_abs="42.00" NOx_abs="166.26" fuel_abs="154849.78" electricity_abs="0.00"/>
    </tripinfo>
    <tripinfo id="3" depart="6.00" departLane="E37_0" departPos="5.10" departSpeed="0.00" departDelay="0.00" arrival="201.00" arrivalLane="-E14_1" arrivalPos="279.20" arrivalSpeed="14.24" duration="195.00" routeLength="1837.99" waitingTime="47.00" waitingCount="1" stopTime="0.00" timeLoss="67.08" rerouteNo="0" devices="tripinfo_3 emissions_3" vType="Car" speedFactor="1.06" vaporized="">
        <emissions CO_abs="2326.72" CO2_abs="461870.76" HC_abs="15.57" PMx_abs="44.02" NOx_abs="165.32" fuel_abs="149732.95" electricity_abs="0.00"/>
    </tripinfo>
    <tripinfo id="flow_z2.2" depart="2.00" departLane="-E18_0" departPos="5.10" departSpeed="5.27" departDelay="0.33" arrival="201.00" arrivalLane="-E15_0" arrivalPos="479.20" arrivalSpeed="8.91" duration="199.00" routeLength="1988.38" waitingTime="20.00" waitingCount="2" stopTime="0.00" timeLoss="55.41" rerouteNo="0" devices="tripinfo_flow_z2.2 emissions_flow_z2.2" vType="Car" speedFactor="1.01" vaporized="">
        <emissions CO_abs="2427.35" CO2_abs="460698.12" HC_abs="16.18" PMx_abs="42.12" NOx_abs="160.24" fuel_abs="149352.25" electricity_abs="0.00"/>
    </tripinfo>
    <tripinfo id="flow_z2.5" depart="8.00" departLane="-E18_0" departPos="5.10" departSpeed="5.48" departDelay="3.84" arrival="201.00" arrivalLane="-E15_1" arrivalPos="479.20" arrivalSpeed="12.25" duration="193.00" routeLength="1984.04" waitingTime="18.00" waitingCount="2" stopTime="0.00" timeLoss="56.84" rerouteNo="0" devices="tripinfo_flow_z2.5 emissions_flow_z2.5" vType="Car" speedFactor="1.06" vaporized="">
        <emissions CO_abs="2753.85" CO2_abs="478805.09" HC_abs="18.35" PMx_abs="42.41" NOx_abs="167.06" fuel_abs="155222.03" electricity_abs="0.00"/>
    </tripinfo>
    <tripinfo id="flow_z3.10" depart="21.00" departLane="-E28_1" departPos="5.10" departSpeed="6.01" departDelay="12.67" arrival="201.00" arrivalLane="-E29_0" arrivalPos="266.06" arrivalSpeed="13.42" duration="180.00" routeLength="1186.43" waitingTime="54.00" waitingCount="1" stopTime="0.00" timeLoss="94.71" rerouteNo="0" devices="tripinfo_flow_z3.10 emissions_flow_z3.10" vType="Car" speedFactor="1.02" vaporized="">
        <emissions CO_abs="1749.59" CO2_abs="407943.77" HC_abs="11.62" PMx_abs="26.20" NOx_abs="141.88" fuel_abs="132250.19" electricity_abs="0.00"/>
    </tripinfo>
    <tripinfo id="flow_z2.6" depart="10.00" departLane="-E18_0" departPos="5.10" departSpeed="6.09" departDelay="5.00" arrival="203.00" arrivalLane="-E15_0" arrivalPos="479.20" arrivalSpeed="12.79" duration="193.00" routeLength="1988.38" waitingTime="15.00" waitingCount="1" stopTime="0.00" timeLoss="44.02" rerouteNo="0" devices="tripinfo_flow_z2.6 emissions_flow_z2.6" vType="Car" speedFactor="0.97" vaporized="">
        <emissions CO_abs="2187.51" CO2_abs="423469.85" HC_abs="14.60" PMx_abs="41.21" NOx_abs="148.31" fuel_abs="137283.56" electricity_abs="0.00"/>
    </tripinfo>
    <tripinfo id="flow_z2.8" depart="14.00" departLane="-E18_0" departPos="5.10" departSpeed="5.60" departDelay="7.34" arrival="203.00" arrivalLane="-E15_1" arrivalPos="479.20" arrivalSpeed="12.83" duration="189.00" routeLength="1984.04" waitingTime="13.00" waitingCount="1" stopTime="0.00" timeLoss="46.12" rerouteNo="0" devices="tripinfo_flow_z2.8 emissions_flow_z2.8" vType="Car" speedFactor="1.01" vaporized="">
        <emissions CO_abs="2576.97" CO2_abs="458095.89" HC_abs="17.17" PMx_abs="42.39" NOx_abs="159.22" fuel_abs="148508.60" electricity_abs="0.00"/>
    </tripinfo>
    <tripinfo id="flow_z2.9" depart="16.00" departLane="-E18_0" departPos="5.10" departSpeed="3.89" departDelay="8.50" arrival="205.00" arrivalLane="-E15_1" arrivalPos="479.20" arrivalSpeed="14.55" duration="189.00" routeLength="1984.04" waitingTime="12.00" waitingCount="1" stopTime="0.00" timeLoss="54.41" rerouteNo="0" devices="tripinfo_flow_z2.9 emissions_flow_z2.9" vType="Car" speedFactor="1.08" vaporized="">
        <emissions CO_abs="2902.10" CO2_abs="474069.92" HC_abs="19.31" PMx_abs="41.54" NOx_abs="165.05" fuel_abs="153686.83" electricity_abs="0.00"/>
    </tripinfo>
    <tripinfo id="flow_z2.7" depart="12.00" departLane="-E18_0" departPos="5.10" departSpeed="5.93" departDelay="6.17" arrival="206.00" arrivalLane="-E15_0" arrivalPos="479.20" arrivalSpeed="11.78" duration="194.00" routeLength="1984.04" waitingTime="13.00" waitingCount="1" stopTime="0.00" timeLoss="39.33" rerouteNo="0" devices="tripinfo_flow_z2.7 emissions_flow_z2.7" vType="Car" speedFactor="0.93" vaporized="">
        <emissions CO_abs="1986.67" CO2_abs="411756.98" HC_abs="13.27" PMx_abs="40.89" NOx_abs="143.62" fuel_abs="133486.48" electricity_abs="0.00"/>
    </tripinfo>
    <tripinfo id="flow_z2.12" depart="23.00" departLane="-E18_0" departPos="5.10" departSpeed="2.51" departDelay="13.00" arrival="206.00" arrivalLane="-E15_1" arrivalPos="479.20" arrivalSpeed="15.87" duration="183.00" routeLength="1984.04" waitingTime="12.00" waitingCount="1" stopTime="0.00" timeLoss="64.34" rerouteNo="0" devices="tripinfo_flow_z2.12 emissions_flow_z2.12" vType="Car" speedFactor="1.22" vaporized="">
        <emissions CO_abs="3076.07" CO2_abs="475129.26" HC_abs="20.52" PMx_abs="43.12" NOx_abs="166.02" fuel_abs="154030.18" electricity_abs="0.00"/>
    </tripinfo>
    <tripinfo id="flow_z2.10" depart="18.00" departLane="-E18_0" departPos="5.10" departSpeed="2.16" departDelay="9.67" arrival="208.00" arrivalLane="-E15_0" arrivalPos="479.20" arrivalSpeed="12.68" duration="190.00" routeLength="1988.38" waitingTime="12.00" waitingCount="1" stopTime="0.00" timeLoss="40.40" rerouteNo="0" devices="tripinfo_flow_z2.10 emissions_flow_z2.10" vType="Car" speedFactor="0.97" vaporized="">
        <emissions CO_abs="2158.19" CO2_abs="419690.31" HC_abs="14.41" PMx_abs="41.25" NOx_abs="145.57" fuel_abs="136058.21" electricity_abs="0.00"/>
    </tripinfo>
    <tripinfo id="flow_z2.16" depart="31.00" departLane="-E18_0" departPos="5.10" departSpeed="5.62" departDelay="17.67" arrival="208.00" arrivalLane="-E15_1" arrivalPos="479.20" arrivalSpeed="15.10" duration="177.00" routeLength="1984.04" waitingTime="11.00" waitingCount="1" stopTime="0.00" timeLoss="52.88" rerouteNo="0" devices="tripinfo_flow_z2.16 emissions_flow_z2.16" vType="Car" speedFactor="1.17" vaporized="">
        <emissions CO_abs="2924.56" CO2_abs="447047.52" HC_abs="19.51" PMx_abs="42.33" NOx_abs="158.14" fuel_abs="144926.71" electricity_abs="0.00"/>
    </tripinfo>
    <tripinfo id="flow_z2.11" depart="21.00" departLane="-E18_0" departPos="5.10" departSpeed="3.83" departDelay="11.84" arrival="210.00" arrivalLane="-E15_0" arrivalPos="479.20" arrivalSpeed="14.59" duration="189.00" routeLength="1984.04" waitingTime="12.00" waitingCount="2" stopTime="0.00" timeLoss="57.84" rerouteNo="0" devices="tripinfo_flow_z2.11 emissions_flow_z2.11" vType="Car" speedFactor="1.10" vaporized="">
        <emissions CO_abs="2679.85" CO2_abs="456628.45" HC_abs="17.88" PMx_abs="42.05" NOx_abs="158.72" fuel_abs="148032.67" electricity_abs="0.00"/>
    </tripinfo>