<?xml version="1.0" encoding="UTF-8"?>

<!-- generated on 2026-05-30T17:30:50.073842+00:00 by Eclipse SUMO sumo 1.26.0
<sumoConfiguration xmlns:xsi="http://www.w3.org/2001/XMLSchema-instance" xsi:noNamespaceSchemaLocation="http://sumo.dlr.de/xsd/sumoConfiguration.xsd">

    <input>
        <net-file value="manhattan.net.xml"/>
        <route-files value="routes.rou.xml,background.rou.xml"/>
        <additional-files value="mosaic_types.add.xml"/>
    </input>

    <output>
        <tripinfo-output value="/home/netsim/opt/tpnpr/tripinfo.xml"/>
    </output>

    <time>
        <begin value="0"/>
        <end value="3600"/>
        <step-length value="1.00"/>
    </time>

    <processing>
        <ignore-route-errors value="true"/>
        <time-to-teleport value="0"/>
    </processing>

    <report>
        <verbose value="true"/>
        <no-step-log value="true"/>
    </report>

    <emissions>
        <device.emissions.probability value="1.0"/>
    </emissions>

    <traci_server>
        <remote-port value="39819"/>
    </traci_server>

    <random_number>
        <seed value="100000"/>
    </random_number>

</sumoConfiguration>
-->

<tripinfos xmlns:xsi="http://www.w3.org/2001/XMLSchema-instance" xsi:noNamespaceSchemaLocation="http://sumo.dlr.de/xsd/tripinfo_file.xsd">
    <tripinfo id="13" depart="26.00" departLane="-E15_0" departPos="5.10" departSpeed="0.00" departDelay="0.00" arrival="64.00" arrivalLane="-E15_0" arrivalPos="479.20" arrivalSpeed="14.54" duration="38.00" routeLength="474.10" waitingTime="0.00" waitingCount="0" stopTime="0.00" timeLoss="5.20" rerouteNo="0" devices="tripinfo_13 emissions_13" vType="Car" speedFactor="1.06" vaporized="">
        <emissions CO_abs="624.94" CO2_abs="106259.13" HC_abs="4.18" PMx_abs="11.48" NOx_abs="36.53" fuel_abs="34447.73" electricity_abs="0.00"/>
    </tripinfo>
    <tripinfo id="22" depart="44.00" departLane="-E14_0" departPos="5.10" departSpeed="0.00" departDelay="0.00" arrival="88.00" arrivalLane="-E25_0" arrivalPos="279.20" arrivalSpeed="13.77" duration="44.00" routeLength="574.10" waitingTime="0.00" waitingCount="0" stopTime="0.00" timeLoss="5.40" rerouteNo="0" devices="tripinfo_22 emissions_22" vType="Car" speedFactor="1.08" vaporized="">
        <emissions CO_abs="765.18" CO2_abs="122611.21" HC_abs="5.12" PMx_abs="13.65" NOx_abs="42.57" fuel_abs="39748.86" electricity_abs="0.00"/>
    </tripinfo>
    <tripinfo id="flow_z3.0" depart="0.00" departLane="-E28_1" departPos="5.10" departSpeed="12.68" departDelay="0.00" arrival="104.00" arrivalLane="-E29_0" arrivalPos="266.06" arrivalSpeed="12.17" duration="104.00" routeLength="1186.43" waitingTime="0.00" waitingCount="0" stopTime="0.00" timeLoss="7.81" rerouteNo="0" devices="tripinfo_flow_z3.0 emissions_flow_z3.0" vType="Car" speedFactor="0.91" vaporized="">
        <emissions CO_abs="938.75" CO2_abs="199024.58" HC_abs="6.30" PMx_abs="24.59" NOx_abs="70.32" fuel_abs="64521.52" electricity_abs="0.00"/>
    </tripinfo>
    <tripinfo id="flow_z3.2" depart="2.00" departLane="-E28_1" departPos="5.10" departSpeed="5.68" departDelay="0.33" arrival="104.00" arrivalLane="-E29_1" arrivalPos="266.06" arrivalSpeed="12.67" duration="102.00" routeLength="1186.43" waitingTime="0.00" waitingCount="0" stopTime="0.00" timeLoss="13.70" rerouteNo="0" devices="tripinfo_flow_z3.2 emissions_flow_z3.2" vType="Car" speedFactor="0.99" vaporized="">
        <emissions CO_abs="1353.36" CO2_abs="232437.19" HC_abs="9.02" PMx_abs="24.37" NOx_abs="81.12" fuel_abs="75353.14" electricity_abs="0.00"/>
    </tripinfo>
    <tripinfo id="flow_z3.1" depart="1.00" departLane="-E28_1" departPos="5.10" departSpeed="10.10" departDelay="0.17" arrival="109.00" arrivalLane="-E29_0" arrivalPos="266.06" arrivalSpeed="12.48" duration="108.00" routeLength="1186.43" waitingTime="0.00" waitingCount="0" stopTime="0.00" timeLoss="11.19" rerouteNo="0" devices="tripinfo_flow_z3.1 emissions_flow_z3.1" vType="Car" speedFactor="0.90" vaporized="">
        <emissions CO_abs="1143.48" CO2_abs="225845.13" HC_abs="7.63" PMx_abs="24.66" NOx_abs="78.78" fuel_abs="73216.24" electricity_abs="0.00"/>
    </tripinfo>
    <tripinfo id="flow_z3.3" depart="4.00" departLane="-E28_1" departPos="5.10" departSpeed="5.55" departDelay="1.50" arrival="110.00" arrivalLane="-E29_1" arrivalPos="266.06" arrivalSpeed="13.19" duration="106.00" routeLength="1186.43" waitingTime="0.00" waitingCount="0" stopTime="0.00" timeLoss="17.32" rerouteNo="0" devices="tripinfo_flow_z3.3 emissions_flow_z3.3" vType="Car" speedFactor="0.99" vaporized="">
        <emissions CO_abs="1413.55" CO2_abs="243319.62" HC_abs="9.41" PMx_abs="24.28" NOx_abs="84.38" fuel_abs="78881.01" electricity_abs="0.00"/>
    </tripinfo>
    <tripinfo id="flow_z3.4" depart="6.00" departLane="-E28_1" departPos="5.10" departSpeed="4.72" departDelay="2.67" arrival="112.00" arrivalLane="-E29_0" arrivalPos="266.06" arrivalSpeed="13.10" duration="106.00" routeLength="1186.43" waitingTime="0.00" waitingCount="0" stopTime="0.00" timeLoss="18.75" rerouteNo="0" devices="tripinfo_flow_z3.4 emissions_flow_z3.4" vType="Car" speedFactor="1.01" vaporized="">
        <emissions CO_abs="1566.90" CO2_abs="254424.81" HC_abs="10.42" PMx_abs="23.67" NOx_abs="87.90" fuel_abs="82481.02" electricity_abs="0.00"/>
    </tripinfo>
    <tripinfo id="flow_z3.6" depart="10.00" departLane="-E28_1" departPos="5.10" departSpeed="2.18" departDelay="5.00" arrival="115.00" arrivalLane="-E29_1" arrivalPos="266.06" arrivalSpeed="14.10" duration="105.00" routeLength="1186.43" waitingTime="0.00" waitingCount="0" stopTime="0.00" timeLoss="25.94" rerouteNo="0" devices="tripinfo_flow_z3.6 emissions_flow_z3.6" vType="Car" speedFactor="1.10" vaporized="">
        <emissions CO_abs="1717.97" CO2_abs="278846.00" HC_abs="11.43" PMx_abs="25.54" NOx_abs="95.29" fuel_abs="90397.91" electricity_abs="0.00"/>
    </tripinfo>
    <tripinfo id="flow_z3.5" depart="8.00" departLane="-E28_1" departPos="5.10" departSpeed="3.73" departDelay="3.84" arrival="116.00" arrivalLane="-E29_0" arrivalPos="266.06" arrivalSpeed="12.11" duration="108.00" routeLength="1186.43" waitingTime="0.00" waitingCount="0" stopTime="0.00" timeLoss="12.70" rerouteNo="0" devices="tripinfo_flow_z3.5 emissions_flow_z3.5" vType="Car" speedFactor="0.92" vaporized="">
        <emissions CO_abs="1210.28" CO2_abs="227671.71" HC_abs="8.07" PMx_abs="23.22" NOx_abs="78.21" fuel_abs="73808.20" electricity_abs="0.00"/>
    </tripinfo>
    <tripinfo id="21" depart="42.00" departLane="-E25_0" departPos="5.10" departSpeed="0.00" departDelay="0.00" arrival="122.00" arrivalLane="-E3_0" arrivalPos="483.20" arrivalSpeed="15.02" duration="80.00" routeLength="1079.36" waitingTime="0.00" waitingCount="0" stopTime="0.00" timeLoss="7.48" rerouteNo="0" devices="tripinfo_21 emissions_21" vType="Car" speedFactor="1.10" vaporized="">
        <emissions CO_abs="1366.23" CO2_abs="203407.55" HC_abs="9.14" PMx_abs="23.67" NOx_abs="71.97" fuel_abs="65941.99" electricity_abs="0.00"/>
    </tripinfo>
    <tripinfo id="30" depart="60.00" departLane="E9_0" departPos="5.10" departSpeed="0.00" departDelay="0.00" arrival="136.00" arrivalLane="E19_0" arrivalPos="283.20" arrivalSpeed="14.73" duration="76.00" routeLength="878.10" waitingTime="4.00" waitingCount="1" stopTime="0.00" timeLoss="16.71" rerouteNo="0" devices="tripinfo_30 emissions_30" vType="Car" speedFactor="1.08" vaporized="">
        <emissions CO_abs="1207.82" CO2_abs="203916.65" HC_abs="8.08" PMx_abs="20.45" NOx_abs="70.39" fuel_abs="66106.93" electricity_abs="0.00"/>
    </tripinfo>
    <tripinfo id="4" depart="8.00" departLane="-E39_0" departPos="5.10" departSpeed="0.00" departDelay="0.00" arrival="142.00" arrivalLane="-E10_0" arrivalPos="479.20" arrivalSpeed="11.81" duration="134.00" routeLength="1552.66" waitingTime="0.00" waitingCount="0" stopTime="0.00" timeLoss="12.27" rerouteNo="0" devices="tripinfo_4 emissions_4" vType="Car" speedFactor="0.93" vaporized="">
        <emissions CO_abs="1484.48" CO2_abs="288488.87" HC_abs="9.93" PMx_abs="32.03" NOx_abs="100.14" fuel_abs="93524.47" electricity_abs="0.00"/>
    </tripinfo>
    <tripinfo id="12" depart="24.00" departLane="E6_0" departPos="5.10" departSpeed="0.00" departDelay="0.00" arrival="147.00" arrivalLane="-E32_0" arrivalPos="266.06" arrivalSpeed="10.87" duration="123.00" routeLength="1239.52" waitingTime="0.00" waitingCount="0" stopTime="0.00" timeLoss="12.39" rerouteNo="0" devices="tripinfo_12 emissions_12" vType="Car" speedFactor="0.81" vaporized="">
        <emissions CO_abs="929.73" CO2_abs="238925.32" HC_abs="6.21" PMx_abs="25.15" NOx_abs="81.79" fuel_abs="77456.70" electricity_abs="0.00"/>
    </tripinfo>
    <tripinfo id="1" depart="2.00" departLane="-E29_0" departPos="5.10" departSpeed="0.00" departDelay="0.00" arrival="153.00" arrivalLane="-E24_0" arrivalPos="283.20" arrivalSpeed="13.16" duration="151.00" routeLength="1942.97" waitingTime="0.00" waitingCount="0" stopTime="0.00" timeLoss="15.12" rerouteNo="0" devices="tripinfo_1 emissions_1" vType="Car" speedFactor="1.04" vaporized="">
        <emissions CO_abs="2227.45" CO2_abs="359762.88" HC_abs="14.92" PMx_abs="41.35" NOx_abs="126.36" fuel_abs="116630.41" electricity_abs="0.00"/>
    </tripinfo>
    <tripinfo id="23" depart="46.00" departLane="-E16_0" departPos="5.10" departSpeed="0.00" departDelay="0.00" arrival="160.00" arrivalLane="-E29_0" arrivalPos="266.06" arrivalSpeed="13.69" duration="114.00" routeLength="1384.98" waitingTime="1.00" waitingCount="1" stopTime="0.00" timeLoss="18.01" rerouteNo="0" devices="tripinfo_23 emissions_23" vType="Car" speedFactor="1.07" vaporized="">
        <emissions CO_abs="1794.54" CO2_abs="295670.91" HC_abs="12.01" PMx_abs="31.71" NOx_abs="102.77" fuel_abs="95852.50" electricity_abs="0.00"/>
    </tripinfo>
    <tripinfo id="48" depart="96.00" departLane="E9_0" departPos="5.10" departSpeed="0.00" departDelay="0.00" arrival="162.00" arrivalLane="E10_0" arrivalPos="479.20" arrivalSpeed="13.74" duration="66.00" routeLength="772.65" waitingTime="0.00" waitingCount="0" stopTime="0.00" timeLoss="8.64" rerouteNo="0" devices="tripinfo_48 emissions_48" vType="Car" speedFactor="1.00" vaporized="">
        <emissions CO_abs="962.85" CO2_abs="171136.78" HC_abs="6.43" PMx_abs="17.42" NOx_abs="58.58" fuel_abs="55480.19" electricity_abs="0.00"/>
    </tripinfo>
    <tripinfo id="flow_z1.2" depart="2.00" departLane="-E1_0" departPos="5.10" departSpeed="7.75" departDelay="0.33" arrival="165.00" arrivalLane="E19_0" arrivalPos="283.20" arrivalSpeed="14.63" duration="163.00" routeLength="2181.19" waitingTime="0.00" waitingCount="0" stopTime="0.00" timeLoss="24.67" rerouteNo="0" devices="tripinfo_flow_z1.2 emissions_flow_z1.2" vType="Car" speedFactor="1.14" vaporized="">
        <emissions CO_abs="2774.41" CO2_abs="396857.91" HC_abs="18.55" PMx_abs="45.19" NOx_abs="142.28" fuel_abs="128656.14" electricity_abs="0.00"/>
    </tripinfo>
    <tripinfo id="flow_z1.0" depart="0.00" departLane="-E1_0" departPos="5.10" departSpeed="13.81" departDelay="0.00" arrival="169.00" arrivalLane="E19_0" arrivalPos="283.20" arrivalSpeed="13.55" duration="169.00" routeLength="2181.19" waitingTime="0.00" waitingCount="0" stopTime="0.00" timeLoss="9.57" rerouteNo="0" devices="tripinfo_flow_z1.0 emissions_flow_z1.0" vType="Car" speedFactor="0.99" vaporized="">
        <emissions CO_abs="2128.90" CO2_abs="355654.05" HC_abs="14.28" PMx_abs="45.43" NOx_abs="127.70" fuel_abs="115298.84" electricity_abs="0.00"/>
    </tripinfo>
    <tripinfo id="0" depart="0.00" departLane="E19_0" departPos="5.10" departSpeed="0.00" departDelay="0.00" arrival="173.00" arrivalLane="-E10_0" arrivalPos="479.20" arrivalSpeed="13.50" duration="173.00" routeLength="1889.99" waitingTime="10.00" waitingCount="1" stopTime="0.00" timeLoss="32.08" rerouteNo="0" devices="tripinfo_0 emissions_0" vType="Car" speedFactor="0.99" vaporized="">
        <emissions CO_abs="2175.88" CO2_abs="402113.79" HC_abs="14.52" PMx_abs="39.02" NOx_abs="138.30" fuel_abs="130359.90" electricity_abs="0.00"/>
    </tripinfo>
    <tripinfo id="flow_z1.3" depart="4.00" departLane="-E1_0" departPos="5.10" departSpeed="8.02" departDelay="1.50" arrival="174.00" arrivalLane="E19_0" arrivalPos="283.20" arrivalSpeed="13.15" duration="170.00" routeLength="2181.19" waitingTime="0.00" waitingCount="0" stopTime="0.00" timeLoss="15.85" rerouteNo="0" devices="tripinfo_flow_z1.3 emissions_flow_z1.3" vType="Car" speedFactor="1.03" vaporized="">
        <emissions CO_abs="2377.06" CO2_abs="374652.98" HC_abs="15.90" PMx_abs="43.85" NOx_abs="133.75" fuel_abs="121457.80" electricity_abs="0.00"/>
    </tripinfo>
    <tripinfo id="flow_z1.1" depart="1.00" departLane="-E1_0" departPos="5.10" departSpeed="10.93" departDelay="0.17" arrival="177.00" arrivalLane="E19_0" arrivalPos="283.20" arrivalSpeed="12.12" duration="176.00" routeLength="2181.19" waitingTime="0.00" waitingCount="0" stopTime="0.00" timeLoss="10.34" rerouteNo="0" devices="tripinfo_flow_z1.1 emissions_flow_z1.1" vType="Car" speedFactor="0.96" vaporized="">
        <emissions CO_abs="1892.05" CO2_abs="349494.03" HC_abs="12.71" PMx_abs="45.22" NOx_abs="125.21" fuel_abs="113301.99" electricity_abs="0.00"/>
    </tripinfo>
    <tripinfo id="16" depart="32.00" departLane="E10_0" departPos="5.10" departSpeed="0.00" departDelay="0.00" arrival="177.00" arrivalLane="E7_0" arrivalPos="466.06" arrivalSpeed="14.39" duration="145.00" routeLength="1801.77" waitingTime="2.00" waitingCount="1" stopTime="0.00" timeLoss="18.68" rerouteNo="0" devices="tripinfo_16 emissions_16" vType="Car" speedFactor="1.05" vaporized="">
        <emissions CO_abs="2175.82" CO2_abs="361093.49" HC_abs="14.57" PMx_abs="40.46" NOx_abs="126.18" fuel_abs="117061.76" electricity_abs="0.00"/>
    </tripinfo>
    <tripinfo id="36" depart="72.00" departLane="E36_0" departPos="5.10" departSpeed="0.00" departDelay="0.00" arrival="178.00" arrivalLane="-E31_0" arrivalPos="279.20" arrivalSpeed="16.92" duration="106.00" routeLength="1568.07" waitingTime="0.00" waitingCount="0" stopTime="0.00" timeLoss="14.10" rerouteNo="0" devices="tripinfo_36 emissions_36" vType="Car" speedFactor="1.27" vaporized="">
        <emissions CO_abs="2897.71" CO2_abs="355675.26" HC_abs="19.41" PMx_abs="40.03" NOx_abs="128.21" fuel_abs="115304.86" electricity_abs="0.00"/>
    </tripinfo>
    <tripinfo id="49" depart="98.00" departLane="E7_0" departPos="5.10" departSpeed="0.00" departDelay="0.00" arrival="178.00" arrivalLane="E34_0" arrivalPos="266.06" arrivalSpeed="14.57" duration="80.00" routeLength="1101.24" waitingTime="0.00" waitingCount="0" stopTime="0.00" timeLoss="8.60" rerouteNo="0" devices="tripinfo_49 emissions_49" vType="Car" speedFactor="1.13" vaporized="">
        <emissions CO_abs="1441.39" CO2_abs="215836.03" HC_abs="9.66" PMx_abs="25.52" NOx_abs="76.32" fuel_abs="69971.16" electricity_abs="0.00"/>
    </tripinfo>
    <tripinfo id="flow_z1.4" depart="6.00" departLane="-E1_0" departPos="5.10" departSpeed="9.40" departDelay="2.67" arrival="178.00" arrivalLane="E19_1" arrivalPos="283.20" arrivalSpeed="13.52" duration="172.00" routeLength="2181.19" waitingTime="0.00" waitingCount="0" stopTime="0.00" timeLoss="14.40" rerouteNo="0" devices="tripinfo_flow_z1.4 emissions_flow_z1.4" vType="Car" speedFactor="1.00" vaporized="">
        <emissions CO_abs="2308.85" CO2_abs="374848.26" HC_abs="15.45" PMx_abs="44.73" NOx_abs="133.91" fuel_abs="121521.20" electricity_abs="0.00"/>
    </tripinfo>
    <tripinfo id="flow_z3.7" depart="13.00" departLane="-E28_1" departPos="5.10" departSpeed="3.08" departDelay="7.17" arrival="186.00" arrivalLane="-E29_1" arrivalPos="266.06" arrivalSpeed="11.24" duration="173.00" routeLength="1186.43" waitingTime="61.00" waitingCount="1" stopTime="0.00" timeLoss="76.20" rerouteNo="0" devices="tripinfo_flow_z3.7 emissions_flow_z3.7" vType="Car" speedFactor="0.90" vaporized="">
        <emissions CO_abs="1255.44" CO2_abs="343077.52" HC_abs="8.36" PMx_abs="24.07" NOx_abs="122.45" fuel_abs="111221.94" electricity_abs="0.00"/>
    </tripinfo>
    <tripinfo id="flow_z3.11" depart="23.00" departLane="-E28_1" departPos="5.10" departSpeed="5.86" departDelay="13.84" arrival="188.00" arrivalLane="-E29_1" arrivalPos="266.06" arrivalSpeed="14.16" duration="165.00" routeLength="1186.43" waitingTime="49.00" waitingCount="1" stopTime="0.00" timeLoss="82.18" rerouteNo="0" devices="tripinfo_flow_z3.11 emissions_flow_z3.11" vType="Car" speedFactor="1.06" vaporized="">
        <emissions CO_abs="1679.59" CO2_abs="361389.95" HC_abs="11.16" PMx_abs="24.30" NOx_abs="127.11" fuel_abs="117158.05" electricity_abs="0.00"/>
    </tripinfo>
    <tripinfo id="flow_z3.13" depart="27.00" departLane="-E28_1" departPos="5.10" departSpeed="6.97" departDelay="16.17" arrival="190.00" arrivalLane="-E29_1" arrivalPos="266.06" arrivalSpeed="12.11" duration="163.00" routeLength="1186.43" waitingTime="50.00" waitingCount="1" stopTime="0.00" timeLoss="65.87" rerouteNo="0" devices="tripinfo_flow_z3.13 emissions_flow_z3.13" vType="Car" speedFactor="0.90" vaporized="">
        <emissions CO_abs="1307.86" CO2_abs="319594.66" HC_abs="8.69" PMx_abs="21.71" NOx_abs="113.54" fuel_abs="103608.80" electricity_abs="0.00"/>
    </tripinfo>
    <tripinfo id="flow_z2.1" depart="1.00" departLane="-E18_0" departPos="5.10" departSpeed="9.58" departDelay="0.17" arrival="192.00" arrivalLane="-E15_0" arrivalPos="479.20" arrivalSpeed="13.93" duration="191.00" routeLength="1988.38" waitingTime="36.00" waitingCount="1" stopTime="0.00" timeLoss="53.78" rerouteNo="0" devices="tripinfo_flow_z2.1 emissions_flow_z2.1" vType="Car" speedFactor="1.06" vaporized="">
        <emissions CO_abs="2497.56" CO2_abs="442152.22" HC_abs="16.71" PMx_abs="44.35" NOx_abs="159.12" fuel_abs="143340.41" electricity_abs="0.00"/>
    </tripinfo>
    <tripinfo id="flow_z3.8" depart="15.00" departLane="-E28_1" departPos="5.10" departSpeed="0.86" departDelay="8.34" arrival="192.00" arrivalLane="-E29_0" arrivalPos="266.06" arrivalSpeed="8.33" duration="177.00" routeLength="1186.43" waitingTime="56.00" waitingCount="2" stopTime="0.00" timeLoss="95.78" rerouteNo="0" devices="tripinfo_flow_z3.8 emissions_flow_z3.8" vType="Car" speedFactor="1.07" vaporized="">
        <emissions CO_abs="1125.12" CO2_abs="352559.64" HC_abs="7.54" PMx_abs="28.24" NOx_abs="127.82" fuel_abs="114296.18" electricity_abs="0.00"/>
    </tripinfo>
    <tripinfo id="18" depart="36.00" departLane="E32_0" departPos="5.10" departSpeed="0.00" departDelay="0.00" arrival="194.00" arrivalLane="E17_0" arrivalPos="465.43" arrivalSpeed="13.14" duration="158.00" routeLength="1839.24" waitingTime="0.00" waitingCount="0" stopTime="0.00" timeLoss="17.17" rerouteNo="0" devices="tripinfo_18 emissions_18" vType="Car" speedFactor="0.96" vaporized="">
        <emissions CO_abs="2107.42" CO2_abs="382531.59" HC_abs="14.08" PMx_abs="41.02" NOx_abs="132.16" fuel_abs="124011.75" electricity_abs="0.00"/>
    </tripinfo>
    <tripinfo id="flow_z2.0" depart="0.00" departLane="-E18_0" departPos="5.10" departSpeed="12.79" departDelay="0.00" arrival="196.00" arrivalLane="-E15_0" arrivalPos="479.20" arrivalSpeed="11.55" duration="196.00" routeLength="1988.38" waitingTime="22.00" waitingCount="1" stopTime="0.00" timeLoss="38.66" rerouteNo="0" devices="tripinfo_flow_z2.0 emissions_flow_z2.0" vType="Car" speedFactor="0.92" vaporized="">
        <emissions CO_abs="1805.92" CO2_abs="387592.62" HC_abs="12.08" PMx_abs="40.06" NOx_abs="136.92" fuel_abs="125653.00" electricity_abs="0.00"/>
    </tripinfo>
    <tripinfo id="flow_z2.3" depart="4.00" departLane="-E18_0" departPos="5.10" departSpeed="5.54" departDelay="1.50" arrival="197.00" arrivalLane="-E15_1" arrivalPos="479.20" arrivalSpeed="13.87" duration="193.00" routeLength="1984.04" waitingTime="21.00" waitingCount="2" stopTime="0.00" timeLoss="54.61" rerouteNo="0" devices="tripinfo_flow_z2.3 emissions_flow_z2.3" vType="Car" speedFactor="1.05" vaporized="">
        <emissions CO_abs="2604.99" CO2_abs="459619.05" HC_abs="17.36" PMx_abs="41.73" NOx_abs="162.24" fuel_abs="149002.44" electricity_abs="0.00"/>
    </tripinfo>
    <tripinfo id="flow_z2.5" depart="8.00" departLane="-E18_0" departPos="5.10" departSpeed="5.48" departDelay="3.84" arrival="199.00" arrivalLane="-E15_1" arrivalPos="479.20" arrivalSpeed="14.26" duration="191.00" routeLength="1984.04" waitingTime="5.00" waitingCount="2" stopTime="0.00" timeLoss="54.37" rerouteNo="0" devices="tripinfo_flow_z2.5 emissions_flow_z2.5" vType="Car" speedFactor="1.06" vaporized="">
        <emissions CO_abs="2412.11" CO2_abs="439517.38" HC_abs="16.07" PMx_abs="41.61" NOx_abs="152.67" fuel_abs="142485.50" electricity_abs="0.00"/>
    </tripinfo>
    <tripinfo id="flow_z3.18" depart="38.00" departLane="-E28_1" departPos="5.10" departSpeed="4.76" departDelay="23.01" arrival="199.00" arrivalLane="-E29_1" arrivalPos="266.06" arrivalSpeed="13.54" duration="161.00" routeLength="1186.43" waitingTime="38.00" waitingCount="2" stopTime="0.00" timeLoss="77.34" rerouteNo="0" devices="tripinfo_flow_z3.18 emissions_flow_z3.18" vType="Car" speedFactor="1.04" vaporized="">
        <emissions CO_abs="1498.41" CO2_abs="354703.13" HC_abs="9.97" PMx_abs="26.34" NOx_abs="123.77" fuel_abs="114990.28" electricity_abs="0.00"/>
    </tripinfo>
    <tripinfo id="flow_z2.4" depart="6.00" departLane="-E18_0" departPos="5.10" departSpeed="5.64" departDelay="2.67" arrival="200.00" arrivalLane="-E15_1" arrivalPos="479.20" arrivalSpeed="12.61" duration="194.00" routeLength="1988.38" waitingTime="0.00" waitingCount="0" stopTime="0.00" timeLoss="56.60" rerouteNo="0" devices="tripinfo_flow_z2.4 emissions_flow_z2.4" vType="Car" speedFactor="1.05" vaporized="">
        <emissions CO_abs="2387.41" CO2_abs="445015.14" HC_abs="15.90" PMx_abs="40.57" NOx_abs="151.93" fuel_abs="144267.82" electricity_abs="0.00"/>
    </tripinfo>
    <tripinfo id="54" depart="108.00" departLane="-E6_0" departPos="5.10" departSpeed="0.00" departDelay="0.00" arrival="201.00" arrivalLane="E6_1" arrivalPos="466.06" arrivalSpeed="6.78" duration="93.00" routeLength="1043.03" waitingTime="0.00" waitingCount="0" stopTime="0.00" timeLoss="14.16" rerouteNo="0" devices="tripinfo_54 emissions_54" vType="Car" speedFactor="0.98" vaporized="">
        <emissions CO_abs="1191.64" CO2_abs="218556.30" HC_abs="7.94" PMx_abs="21.15" NOx_abs="74.55" fuel_abs="70852.88" electricity_abs="0.00"/>
    </tripinfo>
    <tripinfo id="flow_z3.9" depart="19.00" departLane="-E28_1" departPos="5.10" departSpeed="5.82" departDelay="11.50" arrival="201.00" arrivalLane="-E29_1" arrivalPos="266.06" arrivalSpeed="16.54" duration="182.00" routeLength="1186.43" waitingTime="55.00" waitingCount="2" stopTime="0.00" timeLoss="110.42" rerouteNo="0" devices="tripinfo_flow_z3.9 emissions_flow_z3.9" vType="Car" speedFactor="1.21" vaporized="">
        <emissions CO_abs="1788.74" CO2_abs="421127.88" HC_abs="11.88" PMx_abs="26.85" NOx_abs="146.91" fuel_abs="136524.38" electricity_abs="0.00"/>
    </tripinfo>
    <tripinfo id="3" depart="6.00" departLane="E37_0" departPos="5.10" departSpeed="0.00" departDelay="0.00" arrival="202.00" arrivalLane="-E14_1" arrivalPos="279.20" arrivalSpeed="13.74" duration="196.00" routeLength="1837.99" waitingTime="47.00" waitingCount="1" stopTime="0.00" timeLoss="67.38" rerouteNo="0" devices="tripinfo_3 emissions_3" vType="Car" speedFactor="1.06" vaporized="">
        <emissions CO_abs="2361.55" CO2_abs="459894.79" HC_abs="15.80" PMx_abs="42.17" NOx_abs="164.25" fuel_abs="149092.35" electricity_abs="0.00"/>
    </tripinfo>
    <tripinfo id="flow_z3.17" depart="35.00" departLane="-E28_1" departPos="5.10" departSpeed="2.58" departDelay="20.84" arrival="205.00" arrivalLane="-E29_1" arrivalPos="266.06" arrivalSpeed="12.28" duration="170.00" routeLength="1186.43" waitingTime="41.00" waitingCount="1" stopTime="0.00" timeLoss="78.71" rerouteNo="0" devices="tripinfo_flow_z3.17 emissions_flow_z3.17" vType="Car" speedFactor="0.96" vaporized="">
        <emissions CO_abs="1315.66" CO2_abs="358807.21" HC_abs="8.75" PMx_abs="25.61" NOx_abs="124.04" fuel_abs="116320.86" electricity_abs="0.00"/>
    </tripinfo>
    <tripinfo id="flow_z2.7" depart="12.00" departLane="-E18_0" departPos="5.10" departSpeed="5.93" departDelay="6.17" arrival="206.00" arrivalLane="-E15_0" arrivalPos="479.20" arrivalSpeed="12.87" duration="194.00" routeLength="1984.04" waitingTime="0.00" waitingCount="0" stopTime="0.00" timeLoss="38.83" rerouteNo="0" devices="tripinfo_flow_z2.7 emissions_flow_z2.7" vType="Car" speedFactor="0.93" vaporized="">
        <emissions CO_abs="1818.19" CO2_abs="396257.41" HC_abs="12.13" PMx_abs="40.62" NOx_abs="135.68" fuel_abs="128461.65" electricity_abs="0.00"/>
    </tripinfo>
    <tripinfo id="flow_z2.9" depart="16.00" departLane="-E18_0" departPos="5.10" departSpeed="3.89" departDelay="8.50" arrival="207.00" arrivalLane="-E15_1" arrivalPos="479.20" arrivalSpeed="14.15" duration="191.00" routeLength="1984.04" waitingTime="0.00" waitingCount="0" stopTime="0.00" timeLoss="56.97" rerouteNo="0" devices="tripinfo_flow_z2.9 emissions_flow_z2.9" vType="Car" speedFactor="1.08" vaporized="">
        <emissions CO_abs="2391.97" CO2_abs="425254.66" HC_abs="15.92" PMx_abs="38.45" NOx_abs="144.75" fuel_abs="137861.59" electricity_abs="0.00"/>
    </tripinfo>
    <tripinfo id="flow_z3.10" depart="21.00" departLane="-E28_1" departPos="5.10" departSpeed="6.01" departDelay="12.67" arrival="207.00" arrivalLane="-E29_1" arrivalPos="266.06" arrivalSpeed="13.80" duration="186.00" routeLength="1186.43" waitingTime="54.00" waitingCount="1" stopTime="0.00" timeLoss="100.60" rerouteNo="0" devices="tripinfo_flow_z3.10 emissions_flow_z3.10" vType="Car" speedFactor="1.02" vaporized="">
        <emissions CO_abs="1554.72" CO2_abs="402005.14" HC_abs="10.33" PMx_abs="26.04" NOx_abs="139.78" fuel_abs="130325.16" electricity_abs="0.00"/>
    </tripinfo>
    <tripinfo id="flow_z2.10" depart="18.00" departLane="-E18_0" departPos="5.10" departSpeed="2.16" departDelay="9.67" arrival="209.00" arrivalLane="-E15_0" arrivalPos="479.20" arrivalSpeed="12.17" duration="191.00" routeLength="1988.38" waitingTime="0.00" waitingCount="0" stopTime="0.00" timeLoss="41.04" rerouteNo="0" devices="tripinfo_flow_z2.10 emissions_flow_z2.10" vType="Car" speedFactor="0.97" vaporized="">
        <emissions CO_abs="1818.02" CO2_abs="389811.97" HC_abs="12.15" PMx_abs="40.53" NOx_abs="133.76" fuel_abs="126372.11" electricity_abs="0.00"/>
    </tripinfo>
    <tripinfo id="flow_z2.12" depart="23.00" departLane="-E18_0" departPos="5.10" departSpeed="2.51" departDelay="13.00" arrival="209.00" arrivalLane="-E15_1" arrivalPos="479.20" arrivalSpeed="16.83" duration="186.00" routeLength="1984.04" waitingTime="2.00" waitingCount="1" stopTime="0.00" timeLoss="67.06" rerouteNo="0" devices="tripinfo_flow_z2.12 emissions_flow_z2.12" vType="Car" speedFactor="1.22" vaporized="">
        <emissions CO_abs="2857.09" CO2_abs="455575.21" HC_abs="19.01" PMx_abs="39.96" NOx_abs="157.06" fuel_abs="147690.88" electricity_abs="0.00"/>
    </tripinfo>
    <tripinfo id="flow_z3.14" depart="29.00" departLane="-E28_1" departPos="5.10" departSpeed="8.13" departDelay="17.34" arrival="210.00" arrivalLane="-E29_0" arrivalPos="266.06" arrivalSpeed="8.33" duration="181.00" routeLength="1186.43" waitingTime="43.00" waitingCount="1" stopTime="0.00" timeLoss="87.39" rerouteNo="0" devices="tripinfo_flow_z3.14 emissions_flow_z3.14" vType="Car" speedFactor="0.93" vaporized="">
        <emissions CO_abs="803.84" CO2_abs="334539.21" HC_abs="5.39" PMx_abs="28.45" NOx_abs="120.50" fuel_abs="108454.31" electricity_abs="0.00"/>
    </tripinfo>
    <tripinfo id="flow_z2.16" depart="31.00" departLane="-E18_0" departPos="5.10" departSpeed="5.62" departDelay="17.67" arrival="211.00" arrivalLane="-E15_0" arrivalPos="479.20" arrivalSpeed="15.28" duration="180.00" routeLength="1984.04" waitingTime="2.00" waitingCount="1" stopTime="0.00" timeLoss="55.70" rerouteNo="0" devices="tripinfo_flow_z2.16 emissions_flow_z2.16" vType="Car" speedFactor="1.17" vaporized="">
        <emissions CO_abs="2563.25" CO2_abs="414233.52" HC_abs="17.09" PMx_abs="39.66" NOx_abs="143.63" fuel_abs="134288.76" electricity_abs="0.00"/>
    </tripinfo>
    <tripinfo id="41" depart="82.00" departLane="E14_0" departPos="5.10" departSpeed="0.00" departDelay="0.00" arrival="216.00" arrivalLane="E37_0" arrivalPos="266.06" arrivalSpeed="14.24" duration="134.00" routeLength="1537.42" waitingTime="3.00" waitingCount="2" stopTime="0.00" timeLoss="23.46" rerouteNo="0" devices="tripinfo_41 emissions_41" vType="Car" speedFactor="1.03" vaporized="">
        <emissions CO_abs="2015.25" CO2_abs="338732.94" HC_abs="13.45" PMx_abs="33.03" NOx_abs="117.11" fuel_abs="109812.47" electricity_abs="0.00"/>
    </tripinfo>
    <tripinfo id="flow_z3.12" depart="25.00" departLane="-E28_1" departPos="5.10" departSpeed="5.78" departDelay="15.00" arrival="217.00" arrivalLane="-E29_1" arrivalPos="266.06" arrivalSpeed="12.76" duration="192.00" routeLength="1186.43" waitingTime="50.00" waitingCount="1" stopTime="0.00" timeLoss="99.60" rerouteNo="0" devices="tripinfo_flow_z3.12 emissions_flow_z3.12" vType="Car" speedFactor="0.94" vaporized="">
        <emissions CO_abs="1101.66" CO2_abs="359481.63" HC_abs="7.33" PMx_abs="24.26" NOx_abs="124.89" fuel_abs="116539.76" electricity_abs="0.00"/>
    </tripinfo>
    <tripinfo id="39" depart="83.00" departLane="-E28_0" departPos="5.10" departSpeed="0.00" departDelay="5.00" arrival="218.00" arrivalLane="-E26_1" arrivalPos="265.43" arrivalSpeed="9.32" duration="135.00" routeLength="860.33" waitingTime="16.00" waitingCount="1" stopTime="0.00" timeLoss="70.65" rerouteNo="0" devices="tripinfo_39 emissions_39" vType="Car" speedFactor="0.96" vaporized="">
        <emissions CO_abs="969.55" CO2_abs="284825.14" HC_abs="6.42" PMx_abs="17.19" NOx_abs="92.46" fuel_abs="92336.18" electricity_abs="0.00"/>
    </tripinfo>