<?xml version="1.0" encoding="UTF-8"?>

<!-- generated on 2026-05-30T17:18:13.331475+00:00 by Eclipse SUMO sumo 1.26.0
<sumoConfiguration xmlns:xsi="http://www.w3.org/2001/XMLSchema-instance" xsi:noNamespaceSchemaLocation="http://sumo.dlr.de/xsd/sumoConfiguration.xsd">

    <input>
        <net-file value="manhattan.net.xml"/>
        <route-files value="routes.rou.xml,background.rou.xml"/>
        <additional-files value="mosaic_types.add.xml"/>
    </input>

    <output>
        <tripinfo-output value="/home/netsim/opt/tpnpr/tripinfo.xml"/>
    </output>

    <time>
        <begin value="0"/>
        <end value="3600"/>
        <step-length value="1.00"/>
    </time>

    <processing>
        <ignore-route-errors value="true"/>
        <time-to-teleport value="0"/>
    </processing>

    <report>
        <verbose value="true"/>
        <no-step-log value="true"/>
    </report>

    <emissions>
        <device.emissions.probability value="1.0"/>
    </emissions>

    <traci_server>
        <remote-port value="45967"/>
    </traci_server>

    <random_number>
        <seed value="100000"/>
    </random_number>

</sumoConfiguration>
-->

<tripinfos xmlns:xsi="http://www.w3.org/2001/XMLSchema-instance" xsi:noNamespaceSchemaLocation="http://sumo.dlr.de/xsd/tripinfo_file.xsd">
    <tripinfo id="13" depart="26.00" departLane="-E15_0" departPos="5.10" departSpeed="0.00" departDelay="0.00" arrival="71.00" arrivalLane="-E15_0" arrivalPos="479.20" arrivalSpeed="11.66" duration="45.00" routeLength="474.10" waitingTime="0.00" waitingCount="0" stopTime="0.00" timeLoss="5.32" rerouteNo="0" devices="tripinfo_13 emissions_13" vType="Car" speedFactor="0.88" vaporized="">
        <emissions CO_abs="449.22" CO2_abs="97580.05" HC_abs="2.99" PMx_abs="9.44" NOx_abs="32.80" fuel_abs="31634.12" electricity_abs="0.00"/>
    </tripinfo>
    <tripinfo id="flow_z3.1" depart="2.00" departLane="-E28_1" departPos="5.10" departSpeed="13.87" departDelay="0.33" arrival="85.00" arrivalLane="-E29_0" arrivalPos="266.06" arrivalSpeed="15.71" duration="83.00" routeLength="1186.43" waitingTime="0.00" waitingCount="0" stopTime="0.00" timeLoss="7.65" rerouteNo="0" devices="tripinfo_flow_z3.1 emissions_flow_z3.1" vType="Car" speedFactor="1.16" vaporized="">
        <emissions CO_abs="1615.83" CO2_abs="215637.48" HC_abs="10.83" PMx_abs="26.31" NOx_abs="78.10" fuel_abs="69906.85" electricity_abs="0.00"/>
    </tripinfo>
    <tripinfo id="22" depart="44.00" departLane="-E14_0" departPos="5.10" departSpeed="0.00" departDelay="0.00" arrival="99.00" arrivalLane="-E25_0" arrivalPos="279.20" arrivalSpeed="11.43" duration="55.00" routeLength="574.10" waitingTime="0.00" waitingCount="0" stopTime="0.00" timeLoss="5.64" rerouteNo="0" devices="tripinfo_22 emissions_22" vType="Car" speedFactor="0.85" vaporized="">
        <emissions CO_abs="471.12" CO2_abs="114066.97" HC_abs="3.15" PMx_abs="12.09" NOx_abs="38.75" fuel_abs="36979.06" electricity_abs="0.00"/>
    </tripinfo>
    <tripinfo id="flow_z3.0" depart="0.00" departLane="-E28_1" departPos="5.10" departSpeed="12.68" departDelay="0.00" arrival="104.00" arrivalLane="-E29_0" arrivalPos="266.06" arrivalSpeed="12.01" duration="104.00" routeLength="1186.43" waitingTime="0.00" waitingCount="0" stopTime="0.00" timeLoss="8.23" rerouteNo="0" devices="tripinfo_flow_z3.0 emissions_flow_z3.0" vType="Car" speedFactor="0.91" vaporized="">
        <emissions CO_abs="966.29" CO2_abs="197315.77" HC_abs="6.48" PMx_abs="23.66" NOx_abs="69.63" fuel_abs="63967.50" electricity_abs="0.00"/>
    </tripinfo>
    <tripinfo id="flow_z3.2" depart="4.00" departLane="-E28_1" departPos="5.10" departSpeed="13.74" departDelay="0.67" arrival="104.00" arrivalLane="-E29_1" arrivalPos="266.06" arrivalSpeed="12.75" duration="100.00" routeLength="1186.43" waitingTime="0.00" waitingCount="0" stopTime="0.00" timeLoss="12.02" rerouteNo="0" devices="tripinfo_flow_z3.2 emissions_flow_z3.2" vType="Car" speedFactor="0.99" vaporized="">
        <emissions CO_abs="1302.85" CO2_abs="213335.46" HC_abs="8.68" PMx_abs="21.96" NOx_abs="74.65" fuel_abs="69160.55" electricity_abs="0.00"/>
    </tripinfo>
    <tripinfo id="flow_z3.3" depart="5.00" departLane="-E28_1" departPos="5.10" departSpeed="10.42" departDelay="0.00" arrival="107.00" arrivalLane="-E29_0" arrivalPos="266.06" arrivalSpeed="13.24" duration="102.00" routeLength="1186.43" waitingTime="0.00" waitingCount="0" stopTime="0.00" timeLoss="13.59" rerouteNo="0" devices="tripinfo_flow_z3.3 emissions_flow_z3.3" vType="Car" speedFactor="0.99" vaporized="">
        <emissions CO_abs="1427.53" CO2_abs="232748.80" HC_abs="9.51" PMx_abs="23.98" NOx_abs="81.44" fuel_abs="75454.10" electricity_abs="0.00"/>
    </tripinfo>
    <tripinfo id="flow_z3.4" depart="7.00" departLane="-E28_1" departPos="5.10" departSpeed="11.71" departDelay="0.34" arrival="109.00" arrivalLane="-E29_0" arrivalPos="266.06" arrivalSpeed="13.25" duration="102.00" routeLength="1186.43" waitingTime="0.00" waitingCount="0" stopTime="0.00" timeLoss="14.91" rerouteNo="0" devices="tripinfo_flow_z3.4 emissions_flow_z3.4" vType="Car" speedFactor="1.01" vaporized="">
        <emissions CO_abs="1539.18" CO2_abs="244599.15" HC_abs="10.24" PMx_abs="23.82" NOx_abs="85.40" fuel_abs="79295.74" electricity_abs="0.00"/>
    </tripinfo>
    <tripinfo id="flow_z3.5" depart="9.00" departLane="-E28_1" departPos="5.10" departSpeed="12.78" departDelay="0.67" arrival="110.00" arrivalLane="-E29_1" arrivalPos="266.06" arrivalSpeed="13.69" duration="101.00" routeLength="1186.43" waitingTime="0.00" waitingCount="0" stopTime="0.00" timeLoss="18.75" rerouteNo="0" devices="tripinfo_flow_z3.5 emissions_flow_z3.5" vType="Car" speedFactor="1.06" vaporized="">
        <emissions CO_abs="1614.64" CO2_abs="246432.66" HC_abs="10.74" PMx_abs="23.67" NOx_abs="86.18" fuel_abs="79890.09" electricity_abs="0.00"/>
    </tripinfo>
    <tripinfo id="flow_z3.6" depart="10.00" departLane="-E28_1" departPos="5.10" departSpeed="9.98" departDelay="0.00" arrival="111.00" arrivalLane="-E29_0" arrivalPos="266.06" arrivalSpeed="14.32" duration="101.00" routeLength="1186.43" waitingTime="0.00" waitingCount="0" stopTime="0.00" timeLoss="22.01" rerouteNo="0" devices="tripinfo_flow_z3.6 emissions_flow_z3.6" vType="Car" speedFactor="1.10" vaporized="">
        <emissions CO_abs="1686.80" CO2_abs="261817.71" HC_abs="11.23" PMx_abs="25.78" NOx_abs="91.72" fuel_abs="84877.76" electricity_abs="0.00"/>
    </tripinfo>
    <tripinfo id="flow_z3.8" depart="14.00" departLane="-E28_1" departPos="5.10" departSpeed="10.71" departDelay="0.67" arrival="114.00" arrivalLane="-E29_0" arrivalPos="266.06" arrivalSpeed="13.74" duration="100.00" routeLength="1186.43" waitingTime="0.00" waitingCount="0" stopTime="0.00" timeLoss="17.87" rerouteNo="0" devices="tripinfo_flow_z3.8 emissions_flow_z3.8" vType="Car" speedFactor="1.07" vaporized="">
        <emissions CO_abs="1625.18" CO2_abs="249753.18" HC_abs="10.82" PMx_abs="25.03" NOx_abs="87.63" fuel_abs="80966.61" electricity_abs="0.00"/>
    </tripinfo>
    <tripinfo id="12" depart="24.00" departLane="E6_0" departPos="5.10" departSpeed="0.00" departDelay="0.00" arrival="128.00" arrivalLane="-E32_0" arrivalPos="266.06" arrivalSpeed="13.12" duration="104.00" routeLength="1239.52" waitingTime="0.00" waitingCount="0" stopTime="0.00" timeLoss="10.07" rerouteNo="0" devices="tripinfo_12 emissions_12" vType="Car" speedFactor="0.97" vaporized="">
        <emissions CO_abs="1246.38" CO2_abs="231645.46" HC_abs="8.34" PMx_abs="26.51" NOx_abs="80.85" fuel_abs="75096.54" electricity_abs="0.00"/>
    </tripinfo>
    <tripinfo id="21" depart="42.00" departLane="-E25_0" departPos="5.10" departSpeed="0.00" departDelay="0.00" arrival="131.00" arrivalLane="-E3_0" arrivalPos="483.20" arrivalSpeed="12.67" duration="89.00" routeLength="1079.36" waitingTime="0.00" waitingCount="0" stopTime="0.00" timeLoss="7.64" rerouteNo="0" devices="tripinfo_21 emissions_21" vType="Car" speedFactor="0.96" vaporized="">
        <emissions CO_abs="1104.78" CO2_abs="197370.71" HC_abs="7.38" PMx_abs="21.75" NOx_abs="68.58" fuel_abs="63985.01" electricity_abs="0.00"/>
    </tripinfo>
    <tripinfo id="30" depart="60.00" departLane="E9_0" departPos="5.10" departSpeed="0.00" departDelay="0.00" arrival="133.00" arrivalLane="E19_0" arrivalPos="283.20" arrivalSpeed="15.67" duration="73.00" routeLength="878.10" waitingTime="4.00" waitingCount="1" stopTime="0.00" timeLoss="17.26" rerouteNo="0" devices="tripinfo_30 emissions_30" vType="Car" speedFactor="1.13" vaporized="">
        <emissions CO_abs="1274.33" CO2_abs="205037.71" HC_abs="8.53" PMx_abs="21.20" NOx_abs="71.27" fuel_abs="66470.37" electricity_abs="0.00"/>
    </tripinfo>
    <tripinfo id="4" depart="8.00" departLane="-E39_0" departPos="5.10" departSpeed="0.00" departDelay="0.00" arrival="147.00" arrivalLane="-E10_0" arrivalPos="479.20" arrivalSpeed="11.51" duration="139.00" routeLength="1552.66" waitingTime="0.00" waitingCount="0" stopTime="0.00" timeLoss="13.34" rerouteNo="0" devices="tripinfo_4 emissions_4" vType="Car" speedFactor="0.90" vaporized="">
        <emissions CO_abs="1471.99" CO2_abs="297168.75" HC_abs="9.83" PMx_abs="32.18" NOx_abs="102.44" fuel_abs="96338.36" electricity_abs="0.00"/>
    </tripinfo>
    <tripinfo id="1" depart="2.00" departLane="-E29_0" departPos="5.10" departSpeed="0.00" departDelay="0.00" arrival="153.00" arrivalLane="-E24_0" arrivalPos="283.20" arrivalSpeed="14.11" duration="151.00" routeLength="1942.97" waitingTime="0.00" waitingCount="0" stopTime="0.00" timeLoss="14.97" rerouteNo="0" devices="tripinfo_1 emissions_1" vType="Car" speedFactor="1.04" vaporized="">
        <emissions CO_abs="2218.59" CO2_abs="361512.00" HC_abs="14.87" PMx_abs="42.05" NOx_abs="127.08" fuel_abs="117197.49" electricity_abs="0.00"/>
    </tripinfo>
    <tripinfo id="48" depart="96.00" departLane="E9_0" departPos="5.10" departSpeed="0.00" departDelay="0.00" arrival="158.00" arrivalLane="E10_0" arrivalPos="479.20" arrivalSpeed="13.83" duration="62.00" routeLength="772.65" waitingTime="0.00" waitingCount="0" stopTime="0.00" timeLoss="6.62" rerouteNo="0" devices="tripinfo_48 emissions_48" vType="Car" speedFactor="1.03" vaporized="">
        <emissions CO_abs="1077.06" CO2_abs="171188.18" HC_abs="7.19" PMx_abs="17.05" NOx_abs="58.72" fuel_abs="55496.76" electricity_abs="0.00"/>
    </tripinfo>
    <tripinfo id="flow_z1.2" depart="4.00" departLane="-E1_0" departPos="5.10" departSpeed="13.56" departDelay="0.67" arrival="165.00" arrivalLane="E19_1" arrivalPos="283.20" arrivalSpeed="15.09" duration="161.00" routeLength="2181.19" waitingTime="0.00" waitingCount="0" stopTime="0.00" timeLoss="22.19" rerouteNo="0" devices="tripinfo_flow_z1.2 emissions_flow_z1.2" vType="Car" speedFactor="1.14" vaporized="">
        <emissions CO_abs="2555.54" CO2_abs="368034.36" HC_abs="17.11" PMx_abs="44.79" NOx_abs="132.87" fuel_abs="119312.07" electricity_abs="0.00"/>
    </tripinfo>
    <tripinfo id="flow_z3.9" depart="15.00" departLane="-E28_1" departPos="5.10" departSpeed="7.03" departDelay="0.01" arrival="166.00" arrivalLane="-E29_1" arrivalPos="266.06" arrivalSpeed="16.58" duration="151.00" routeLength="1186.43" waitingTime="56.00" waitingCount="2" stopTime="0.00" timeLoss="78.83" rerouteNo="0" devices="tripinfo_flow_z3.9 emissions_flow_z3.9" vType="Car" speedFactor="1.21" vaporized="">
        <emissions CO_abs="2105.38" CO2_abs="376611.51" HC_abs="14.04" PMx_abs="28.45" NOx_abs="137.02" fuel_abs="122092.76" electricity_abs="0.00"/>
    </tripinfo>
    <tripinfo id="flow_z1.0" depart="0.00" departLane="-E1_0" departPos="5.10" departSpeed="13.81" departDelay="0.00" arrival="168.00" arrivalLane="E19_0" arrivalPos="283.20" arrivalSpeed="13.06" duration="168.00" routeLength="2181.19" waitingTime="0.00" waitingCount="0" stopTime="0.00" timeLoss="8.67" rerouteNo="0" devices="tripinfo_flow_z1.0 emissions_flow_z1.0" vType="Car" speedFactor="0.99" vaporized="">
        <emissions CO_abs="1921.10" CO2_abs="335597.65" HC_abs="12.92" PMx_abs="45.60" NOx_abs="121.03" fuel_abs="108796.96" electricity_abs="0.00"/>
    </tripinfo>
    <tripinfo id="23" depart="46.00" departLane="-E16_0" departPos="5.10" departSpeed="0.00" departDelay="0.00" arrival="174.00" arrivalLane="-E29_0" arrivalPos="266.06" arrivalSpeed="8.33" duration="128.00" routeLength="1384.98" waitingTime="2.00" waitingCount="1" stopTime="0.00" timeLoss="30.70" rerouteNo="0" devices="tripinfo_23 emissions_23" vType="Car" speedFactor="1.05" vaporized="">
        <emissions CO_abs="1377.48" CO2_abs="293387.01" HC_abs="9.24" PMx_abs="33.47" NOx_abs="103.34" fuel_abs="95112.56" electricity_abs="0.00"/>
    </tripinfo>
    <tripinfo id="16" depart="32.00" departLane="E10_0" departPos="5.10" departSpeed="0.00" departDelay="0.00" arrival="177.00" arrivalLane="E7_0" arrivalPos="466.06" arrivalSpeed="14.07" duration="145.00" routeLength="1801.77" waitingTime="2.00" waitingCount="1" stopTime="0.00" timeLoss="19.92" rerouteNo="0" devices="tripinfo_16 emissions_16" vType="Car" speedFactor="1.06" vaporized="">
        <emissions CO_abs="2241.45" CO2_abs="366204.89" HC_abs="14.98" PMx_abs="39.91" NOx_abs="128.25" fuel_abs="118718.71" electricity_abs="0.00"/>
    </tripinfo>
    <tripinfo id="flow_z1.3" depart="5.00" departLane="-E1_0" departPos="5.10" departSpeed="10.50" departDelay="0.00" arrival="177.00" arrivalLane="E19_0" arrivalPos="283.20" arrivalSpeed="13.45" duration="172.00" routeLength="2181.19" waitingTime="0.00" waitingCount="0" stopTime="0.00" timeLoss="17.48" rerouteNo="0" devices="tripinfo_flow_z1.3 emissions_flow_z1.3" vType="Car" speedFactor="1.03" vaporized="">
        <emissions CO_abs="2581.09" CO2_abs="395645.17" HC_abs="17.24" PMx_abs="44.67" NOx_abs="140.96" fuel_abs="128263.10" electricity_abs="0.00"/>
    </tripinfo>
    <tripinfo id="flow_z1.1" depart="2.00" departLane="-E1_0" departPos="5.10" departSpeed="13.03" departDelay="0.33" arrival="181.00" arrivalLane="E19_0" arrivalPos="283.20" arrivalSpeed="12.77" duration="179.00" routeLength="2181.19" waitingTime="0.00" waitingCount="0" stopTime="0.00" timeLoss="10.07" rerouteNo="0" devices="tripinfo_flow_z1.1 emissions_flow_z1.1" vType="Car" speedFactor="0.94" vaporized="">
        <emissions CO_abs="1958.73" CO2_abs="354333.85" HC_abs="13.12" PMx_abs="43.55" NOx_abs="126.50" fuel_abs="114870.89" electricity_abs="0.00"/>
    </tripinfo>
    <tripinfo id="11" depart="22.00" departLane="-E33_0" departPos="5.10" departSpeed="0.00" departDelay="0.00" arrival="186.00" arrivalLane="-E2_0" arrivalPos="479.20" arrivalSpeed="13.43" duration="164.00" routeLength="2093.43" waitingTime="0.00" waitingCount="0" stopTime="0.00" timeLoss="14.82" rerouteNo="0" devices="tripinfo_11 emissions_11" vType="Car" speedFactor="1.03" vaporized="">
        <emissions CO_abs="2462.41" CO2_abs="394997.13" HC_abs="16.46" PMx_abs="44.54" NOx_abs="139.06" fuel_abs="128052.92" electricity_abs="0.00"/>
    </tripinfo>
    <tripinfo id="flow_z3.7" depart="12.00" departLane="-E28_1" departPos="5.10" departSpeed="9.90" departDelay="0.34" arrival="186.00" arrivalLane="-E29_0" arrivalPos="266.06" arrivalSpeed="12.23" duration="174.00" routeLength="1186.43" waitingTime="62.00" waitingCount="1" stopTime="0.00" timeLoss="77.11" rerouteNo="0" devices="tripinfo_flow_z3.7 emissions_flow_z3.7" vType="Car" speedFactor="0.90" vaporized="">
        <emissions CO_abs="1237.22" CO2_abs="344873.36" HC_abs="8.25" PMx_abs="25.35" NOx_abs="124.39" fuel_abs="111804.20" electricity_abs="0.00"/>
    </tripinfo>
    <tripinfo id="54" depart="108.00" departLane="-E6_0" departPos="5.10" departSpeed="0.00" departDelay="0.00" arrival="188.00" arrivalLane="E6_0" arrivalPos="466.06" arrivalSpeed="14.92" duration="80.00" routeLength="1043.03" waitingTime="0.00" waitingCount="0" stopTime="0.00" timeLoss="8.83" rerouteNo="0" devices="tripinfo_54 emissions_54" vType="Car" speedFactor="1.10" vaporized="">
        <emissions CO_abs="1497.12" CO2_abs="220832.42" HC_abs="9.99" PMx_abs="24.08" NOx_abs="77.86" fuel_abs="71590.84" electricity_abs="0.00"/>
    </tripinfo>
    <tripinfo id="flow_z2.0" depart="0.00" departLane="-E18_0" departPos="5.10" departSpeed="12.79" departDelay="0.00" arrival="197.00" arrivalLane="-E15_0" arrivalPos="479.20" arrivalSpeed="12.57" duration="197.00" routeLength="1988.38" waitingTime="23.00" waitingCount="1" stopTime="0.00" timeLoss="38.68" rerouteNo="0" devices="tripinfo_flow_z2.0 emissions_flow_z2.0" vType="Car" speedFactor="0.92" vaporized="">
        <emissions CO_abs="1809.60" CO2_abs="396298.20" HC_abs="12.11" PMx_abs="41.95" NOx_abs="140.49" fuel_abs="128475.33" electricity_abs="0.00"/>
    </tripinfo>
    <tripinfo id="18" depart="36.00" departLane="E32_0" departPos="5.10" departSpeed="0.00" departDelay="0.00" arrival="198.00" arrivalLane="E17_0" arrivalPos="465.43" arrivalSpeed="12.31" duration="162.00" routeLength="1839.24" waitingTime="0.00" waitingCount="0" stopTime="0.00" timeLoss="18.47" rerouteNo="0" devices="tripinfo_18 emissions_18" vType="Car" speedFactor="0.95" vaporized="">
        <emissions CO_abs="2073.65" CO2_abs="378985.47" HC_abs="13.83" PMx_abs="38.45" NOx_abs="130.60" fuel_abs="122862.09" electricity_abs="0.00"/>
    </tripinfo>
    <tripinfo id="3" depart="6.00" departLane="E37_0" departPos="5.10" departSpeed="0.00" departDelay="0.00" arrival="201.00" arrivalLane="-E14_1" arrivalPos="279.20" arrivalSpeed="14.38" duration="195.00" routeLength="1837.99" waitingTime="47.00" waitingCount="1" stopTime="0.00" timeLoss="67.36" rerouteNo="0" devices="tripinfo_3 emissions_3" vType="Car" speedFactor="1.06" vaporized="">
        <emissions CO_abs="2461.39" CO2_abs="456814.74" HC_abs="16.44" PMx_abs="40.05" NOx_abs="163.28" fuel_abs="148093.68" electricity_abs="0.00"/>
    </tripinfo>
    <tripinfo id="flow_z3.14" depart="24.00" departLane="-E28_1" departPos="5.10" departSpeed="5.36" departDelay="0.68" arrival="205.00" arrivalLane="-E29_0" arrivalPos="266.06" arrivalSpeed="8.33" duration="181.00" routeLength="1186.43" waitingTime="53.00" waitingCount="1" stopTime="0.00" timeLoss="86.91" rerouteNo="0" devices="tripinfo_flow_z3.14 emissions_flow_z3.14" vType="Car" speedFactor="0.93" vaporized="">
        <emissions CO_abs="934.89" CO2_abs="347458.42" HC_abs="6.25" PMx_abs="28.37" NOx_abs="126.79" fuel_abs="112642.65" electricity_abs="0.00"/>
    </tripinfo>
    <tripinfo id="39" depart="80.00" departLane="-E28_0" departPos="5.10" departSpeed="0.00" departDelay="2.00" arrival="206.00" arrivalLane="-E26_1" arrivalPos="265.43" arrivalSpeed="8.17" duration="126.00" routeLength="860.33" waitingTime="20.00" waitingCount="2" stopTime="0.00" timeLoss="76.94" rerouteNo="0" devices="tripinfo_39 emissions_39" vType="Car" speedFactor="1.27" vaporized="">
        <emissions CO_abs="926.15" CO2_abs="265941.94" HC_abs="6.15" PMx_abs="18.14" NOx_abs="91.20" fuel_abs="86215.02" electricity_abs="0.00"/>
    </tripinfo>
    <tripinfo id="flow_z3.13" depart="23.00" departLane="-E28_1" departPos="5.10" departSpeed="9.21" departDelay="1.34" arrival="207.00" arrivalLane="-E29_1" arrivalPos="266.06" arrivalSpeed="8.33" duration="184.00" routeLength="1186.43" waitingTime="50.00" waitingCount="1" stopTime="0.00" timeLoss="86.94" rerouteNo="0" devices="tripinfo_flow_z3.13 emissions_flow_z3.13" vType="Car" speedFactor="0.90" vaporized="">
        <emissions CO_abs="757.41" CO2_abs="325722.45" HC_abs="5.07" PMx_abs="26.39" NOx_abs="118.08" fuel_abs="105596.11" electricity_abs="0.00"/>
    </tripinfo>
    <tripinfo id="49" depart="98.00" departLane="E7_0" departPos="5.10" departSpeed="0.00" departDelay="0.00" arrival="209.00" arrivalLane="E34_0" arrivalPos="266.06" arrivalSpeed="10.05" duration="111.00" routeLength="1101.24" waitingTime="0.00" waitingCount="0" stopTime="0.00" timeLoss="10.76" rerouteNo="0" devices="tripinfo_49 emissions_49" vType="Car" speedFactor="0.81" vaporized="">
        <emissions CO_abs="856.97" CO2_abs="221439.53" HC_abs="5.73" PMx_abs="22.95" NOx_abs="75.57" fuel_abs="71788.00" electricity_abs="0.00"/>
    </tripinfo>
    <tripinfo id="flow_z3.15" depart="26.00" departLane="-E28_1" departPos="5.10" departSpeed="6.40" departDelay="1.01" arrival="209.00" arrivalLane="-E29_1" arrivalPos="266.06" arrivalSpeed="12.72" duration="183.00" routeLength="1186.43" waitingTime="48.00" waitingCount="2" stopTime="0.00" timeLoss="102.00" rerouteNo="0" devices="tripinfo_flow_z3.15 emissions_flow_z3.15" vType="Car" speedFactor="1.07" vaporized="">
        <emissions CO_abs="1639.02" CO2_abs="400813.28" HC_abs="10.86" PMx_abs="24.51" NOx_abs="138.17" fuel_abs="129938.54" electricity_abs="0.00"/>
    </tripinfo>
    <tripinfo id="flow_z3.17" depart="30.00" departLane="-E28_1" departPos="5.10" departSpeed="5.98" departDelay="1.68" arrival="210.00" arrivalLane="-E29_0" arrivalPos="266.06" arrivalSpeed="8.33" duration="180.00" routeLength="1186.43" waitingTime="45.00" waitingCount="1" stopTime="0.00" timeLoss="100.99" rerouteNo="0" devices="tripinfo_flow_z3.17 emissions_flow_z3.17" vType="Car" speedFactor="1.11" vaporized="">
        <emissions CO_abs="1044.04" CO2_abs="355535.84" HC_abs="6.98" PMx_abs="29.00" NOx_abs="128.19" fuel_abs="115261.01" electricity_abs="0.00"/>
    </tripinfo>
    <tripinfo id="flow_z3.10" depart="17.00" departLane="-E28_1" departPos="5.10" departSpeed="7.25" departDelay="0.34" arrival="211.00" arrivalLane="-E29_1" arrivalPos="266.06" arrivalSpeed="13.35" duration="194.00" routeLength="1186.43" waitingTime="55.00" waitingCount="1" stopTime="0.00" timeLoss="108.40" rerouteNo="0" devices="tripinfo_flow_z3.10 emissions_flow_z3.10" vType="Car" speedFactor="1.02" vaporized="">
        <emissions CO_abs="1533.10" CO2_abs="409382.86" HC_abs="10.16" PMx_abs="24.49" NOx_abs="142.38" fuel_abs="132716.86" electricity_abs="0.00"/>
    </tripinfo>
    <tripinfo id="flow_z3.11" depart="19.00" departLane="-E28_1" departPos="5.10" departSpeed="7.56" departDelay="0.67" arrival="211.00" arrivalLane="-E29_0" arrivalPos="266.06" arrivalSpeed="11.29" duration="192.00" routeLength="1186.43" waitingTime="56.00" waitingCount="2" stopTime="0.00" timeLoss="112.89" rerouteNo="0" devices="tripinfo_flow_z3.11 emissions_flow_z3.11" vType="Car" speedFactor="1.10" vaporized="">
        <emissions CO_abs="1594.17" CO2_abs="405624.25" HC_abs="10.56" PMx_abs="23.53" NOx_abs="140.62" fuel_abs="131498.30" electricity_abs="0.00"/>
    </tripinfo>
    <tripinfo id="flow_z3.24" depart="44.00" departLane="-E28_1" departPos="5.10" departSpeed="3.17" departDelay="4.02" arrival="215.00" arrivalLane="-E29_1" arrivalPos="266.06" arrivalSpeed="11.66" duration="171.00" routeLength="1186.43" waitingTime="36.00" waitingCount="1" stopTime="0.00" timeLoss="77.06" rerouteNo="0" devices="tripinfo_flow_z3.24 emissions_flow_z3.24" vType="Car" speedFactor="0.93" vaporized="">
        <emissions CO_abs="1269.89" CO2_abs="350916.28" HC_abs="8.44" PMx_abs="24.63" NOx_abs="119.50" fuel_abs="113762.58" electricity_abs="0.00"/>
    </tripinfo>
    <tripinfo id="68" depart="136.00" departLane="-E13_0" departPos="5.10" departSpeed="0.00" departDelay="0.00" arrival="218.00" arrivalLane="E27_1" arrivalPos="279.20" arrivalSpeed="12.98" duration="82.00" routeLength="772.65" waitingTime="17.00" waitingCount="1" stopTime="0.00" timeLoss="26.48" rerouteNo="0" devices="tripinfo_68 emissions_68" vType="Car" speedFactor="1.01" vaporized="">
        <emissions CO_abs="1015.93" CO2_abs="203164.21" HC_abs="6.77" PMx_abs="17.75" NOx_abs="70.70" fuel_abs="65863.21" electricity_abs="0.00"/>
    </tripinfo>
    <tripinfo id="41" depart="82.00" departLane="E14_0" departPos="5.10" departSpeed="0.00" departDelay="0.00" arrival="219.00" arrivalLane="E37_0" arrivalPos="266.06" arrivalSpeed="12.68" duration="137.00" routeLength="1537.42" waitingTime="0.00" waitingCount="0" stopTime="0.00" timeLoss="18.00" rerouteNo="0" devices="tripinfo_41 emissions_41" vType="Car" speedFactor="0.94" vaporized="">
        <emissions CO_abs="1643.73" CO2_abs="319781.10" HC_abs="10.98" PMx_abs="33.07" NOx_abs="109.62" fuel_abs="103668.86" electricity_abs="0.00"/>
    </tripinfo>
    <tripinfo id="flow_z3.21" depart="37.00" departLane="-E28_1" departPos="5.10" departSpeed="4.58" departDelay="2.01" arrival="219.00" arrivalLane="-E29_0" arrivalPos="266.06" arrivalSpeed="8.72" duration="182.00" routeLength="1186.43" waitingTime="39.00" waitingCount="1" stopTime="0.00" timeLoss="59.26" rerouteNo="0" devices="tripinfo_flow_z3.21 emissions_flow_z3.21" vType="Car" speedFactor="0.71" vaporized="">
        <emissions CO_abs="782.10" CO2_abs="315820.22" HC_abs="5.21" PMx_abs="23.10" NOx_abs="110.32" fuel_abs="102385.50" electricity_abs="0.00"/>
    </tripinfo>
    <tripinfo id="flow_z3.12" depart="21.00" departLane="-E28_1" departPos="5.10" departSpeed="8.33" departDelay="1.01" arrival="220.00" arrivalLane="-E29_1" arrivalPos="266.06" arrivalSpeed="12.37" duration="199.00" routeLength="1186.43" waitingTime="55.00" waitingCount="1" stopTime="0.00" timeLoss="106.70" rerouteNo="0" devices="tripinfo_flow_z3.12 emissions_flow_z3.12" vType="Car" speedFactor="0.94" vaporized="">
        <emissions CO_abs="1267.93" CO2_abs="398365.38" HC_abs="8.42" PMx_abs="24.43" NOx_abs="137.38" fuel_abs="129145.25" electricity_abs="0.00"/>
    </tripinfo>
    <tripinfo id="flow_z3.26" depart="49.00" departLane="-E28_1" departPos="5.10" departSpeed="5.54" departDelay="5.68" arrival="221.00" arrivalLane="-E29_0" arrivalPos="266.06" arrivalSpeed="11.27" duration="172.00" routeLength="1186.43" waitingTime="36.00" waitingCount="1" stopTime="0.00" timeLoss="72.23" rerouteNo="0" devices="tripinfo_flow_z3.26 emissions_flow_z3.26" vType="Car" speedFactor="0.88" vaporized="">
        <emissions CO_abs="1238.75" CO2_abs="348021.37" HC_abs="8.22" PMx_abs="24.04" NOx_abs="119.24" fuel_abs="112824.27" electricity_abs="0.00"/>
    </tripinfo>
    <tripinfo id="flow_z3.32" depart="61.00" departLane="-E28_1" departPos="5.10" departSpeed="7.16" departDelay="7.69" arrival="222.00" arrivalLane="-E29_1" arrivalPos="266.06" arrivalSpeed="13.75" duration="161.00" routeLength="1186.43" waitingTime="31.00" waitingCount="1" stopTime="0.00" timeLoss="79.69" rerouteNo="0" devices="tripinfo_flow_z3.32 emissions_flow_z3.32" vType="Car" speedFactor="1.08" vaporized="">
        <emissions CO_abs="1880.93" CO2_abs="397657.49" HC_abs="12.47" PMx_abs="25.55" NOx_abs="134.73" fuel_abs="128915.03" electricity_abs="0.00"/>
    </tripinfo>
    <tripinfo id="42" depart="84.00" departLane="-E37_0" departPos="5.10" departSpeed="0.00" departDelay="0.00" arrival="224.00" arrivalLane="-E24_0" arrivalPos="283.20" arrivalSpeed="13.04" duration="140.00" routeLength="1551.74" waitingTime="1.00" waitingCount="1" stopTime="0.00" timeLoss="21.93" rerouteNo="0" devices="tripinfo_42 emissions_42" vType="Car" speedFactor="0.96" vaporized="">
        <emissions CO_abs="1781.79" CO2_abs="332258.76" HC_abs="11.88" PMx_abs="32.22" NOx_abs="112.71" fuel_abs="107713.69" electricity_abs="0.00"/>
    </tripinfo>
    <tripinfo id="flow_z3.16" depart="28.00" departLane="-E28_1" departPos="5.10" departSpeed="5.95" departDelay="1.34" arrival="224.00" arrivalLane="-E29_0" arrivalPos="266.06" arrivalSpeed="13.87" duration="196.00" routeLength="1186.43" waitingTime="47.00" waitingCount="2" stopTime="0.00" timeLoss="114.36" rerouteNo="0" devices="tripinfo_flow_z3.16 emissions_flow_z3.16" vType="Car" speedFactor="1.08" vaporized="">
        <emissions CO_abs="1519.95" CO2_abs="420924.47" HC_abs="10.09" PMx_abs="25.80" NOx_abs="142.38" fuel_abs="136458.15" electricity_abs="0.00"/>
    </tripinfo>
    <tripinfo id="36" depart="72.00" departLane="E36_0" departPos="5.10" departSpeed="0.00" departDelay="0.00" arrival="227.00" arrivalLane="-E31_0" arrivalPos="279.20" arrivalSpeed="11.25" duration="155.00" routeLength="1572.41" waitingTime="0.00" waitingCount="0" stopTime="0.00" timeLoss="15.40" rerouteNo="0" devices="tripinfo_36 emissions_36" vType="Car" speedFactor="0.83" vaporized="">
        <emissions CO_abs="1313.44" CO2_abs="313070.43" HC_abs="8.76" PMx_abs="31.89" NOx_abs="106.73" fuel_abs="101493.54" electricity_abs="0.00"/>
    </tripinfo>
    <tripinfo id="flow_z1.4" depart="7.00" departLane="-E1_0" departPos="5.10" departSpeed="12.42" departDelay="0.34" arrival="229.00" arrivalLane="E19_0" arrivalPos="283.20" arrivalSpeed="12.98" duration="222.00" routeLength="2181.19" waitingTime="43.00" waitingCount="1" stopTime="0.00" timeLoss="63.92" rerouteNo="0" devices="tripinfo_flow_z1.4 emissions_flow_z1.4" vType="Car" speedFactor="1.00" vaporized="">
        <emissions CO_abs="2799.05" CO2_abs="502208.23" HC_abs="18.66" PMx_abs="45.46" NOx_abs="180.46" fuel_abs="162809.70" electricity_abs="0.00"/>
    </tripinfo>
    <tripinfo id="flow_z1.6" depart="10.00" departLane="-E1_0" departPos="5.10" departSpeed="8.77" departDelay="0.00" arrival="229.00" arrivalLane="E19_1" arrivalPos="283.20" arrivalSpeed="12.23" duration="219.00" routeLength="2181.19" waitingTime="37.00" waitingCount="1" stopTime="0.00" timeLoss="56.72" rerouteNo="0" devices="tripinfo_flow_z1.6 emissions_flow_z1.6" vType="Car" speedFactor="0.97" vaporized="">
        <emissions CO_abs="2515.95" CO2_abs="476260.71" HC_abs="16.79" PMx_abs="45.28" NOx_abs="170.11" fuel_abs="154397.98" electricity_abs="0.00"/>
    </tripinfo>
    <tripinfo id="flow_z2.1" depart="2.00" departLane="-E18_0" departPos="5.10" departSpeed="13.62" departDelay="0.33" arrival="231.00" arrivalLane="-E15_0" arrivalPos="479.20" arrivalSpeed="8.33" duration="229.00" routeLength="1988.38" waitingTime="3.00" waitingCount="1" stopTime="0.00" timeLoss="92.82" rerouteNo="0" devices="tripinfo_flow_z2.1 emissions_flow_z2.1" vType="Car" speedFactor="1.06" vaporized="">
        <emissions CO_abs="825.30" CO2_abs="417411.11" HC_abs="5.60" PMx_abs="50.93" NOx_abs="152.37" fuel_abs="135321.13" electricity_abs="0.00"/>
    </tripinfo>