<?xml version="1.0" encoding="UTF-8"?>

<!-- generated on 2026-05-30T17:18:40.248517+00:00 by Eclipse SUMO sumo 1.26.0
<sumoConfiguration xmlns:xsi="http://www.w3.org/2001/XMLSchema-instance" xsi:noNamespaceSchemaLocation="http://sumo.dlr.de/xsd/sumoConfiguration.xsd">

    <input>
        <net-file value="manhattan.net.xml"/>
        <route-files value="routes.rou.xml,background.rou.xml"/>
        <additional-files value="mosaic_types.add.xml"/>
    </input>

    <output>
        <tripinfo-output value="/home/netsim/opt/tpnpr/tripinfo.xml"/>
    </output>

    <time>
        <begin value="0"/>
        <end value="3600"/>
        <step-length value="1.00"/>
    </time>

    <processing>
        <ignore-route-errors value="true"/>
        <time-to-teleport value="0"/>
    </processing>

    <report>
        <verbose value="true"/>
        <no-step-log value="true"/>
    </report>

    <emissions>
        <device.emissions.probability value="1.0"/>
    </emissions>

    <traci_server>
        <remote-port value="45303"/>
    </traci_server>

    <random_number>
        <seed value="100000"/>
    </random_number>

</sumoConfiguration>
-->

<tripinfos xmlns:xsi="http://www.w3.org/2001/XMLSchema-instance" xsi:noNamespaceSchemaLocation="http://sumo.dlr.de/xsd/tripinfo_file.xsd">
    <tripinfo id="13" depart="26.00" departLane="-E15_0" departPos="5.10" departSpeed="0.00" departDelay="0.00" arrival="71.00" arrivalLane="-E15_0" arrivalPos="479.20" arrivalSpeed="11.95" duration="45.00" routeLength="474.10" waitingTime="0.00" waitingCount="0" stopTime="0.00" timeLoss="5.22" rerouteNo="0" devices="tripinfo_13 emissions_13" vType="Car" speedFactor="0.88" vaporized="">
        <emissions CO_abs="423.90" CO2_abs="97733.26" HC_abs="2.83" PMx_abs="10.04" NOx_abs="33.00" fuel_abs="31683.83" electricity_abs="0.00"/>
    </tripinfo>
    <tripinfo id="flow_z3.1" depart="2.00" departLane="-E28_1" departPos="5.10" departSpeed="13.87" departDelay="0.33" arrival="85.00" arrivalLane="-E29_0" arrivalPos="266.06" arrivalSpeed="15.71" duration="83.00" routeLength="1186.43" waitingTime="0.00" waitingCount="0" stopTime="0.00" timeLoss="7.82" rerouteNo="0" devices="tripinfo_flow_z3.1 emissions_flow_z3.1" vType="Car" speedFactor="1.16" vaporized="">
        <emissions CO_abs="1612.51" CO2_abs="215482.00" HC_abs="10.81" PMx_abs="26.22" NOx_abs="78.04" fuel_abs="69856.44" electricity_abs="0.00"/>
    </tripinfo>
    <tripinfo id="22" depart="44.00" departLane="-E14_0" departPos="5.10" departSpeed="0.00" departDelay="0.00" arrival="99.00" arrivalLane="-E25_0" arrivalPos="279.20" arrivalSpeed="11.36" duration="55.00" routeLength="574.10" waitingTime="0.00" waitingCount="0" stopTime="0.00" timeLoss="5.64" rerouteNo="0" devices="tripinfo_22 emissions_22" vType="Car" speedFactor="0.85" vaporized="">
        <emissions CO_abs="492.90" CO2_abs="116643.18" HC_abs="3.29" PMx_abs="12.14" NOx_abs="39.56" fuel_abs="37814.22" electricity_abs="0.00"/>
    </tripinfo>
    <tripinfo id="flow_z3.0" depart="0.00" departLane="-E28_1" departPos="5.10" departSpeed="12.68" departDelay="0.00" arrival="104.00" arrivalLane="-E29_0" arrivalPos="266.06" arrivalSpeed="12.01" duration="104.00" routeLength="1186.43" waitingTime="0.00" waitingCount="0" stopTime="0.00" timeLoss="8.17" rerouteNo="0" devices="tripinfo_flow_z3.0 emissions_flow_z3.0" vType="Car" speedFactor="0.91" vaporized="">
        <emissions CO_abs="973.06" CO2_abs="198234.64" HC_abs="6.52" PMx_abs="23.69" NOx_abs="69.90" fuel_abs="64265.37" electricity_abs="0.00"/>
    </tripinfo>
    <tripinfo id="flow_z3.2" depart="4.00" departLane="-E28_1" departPos="5.10" departSpeed="13.74" departDelay="0.67" arrival="104.00" arrivalLane="-E29_1" arrivalPos="266.06" arrivalSpeed="12.75" duration="100.00" routeLength="1186.43" waitingTime="0.00" waitingCount="0" stopTime="0.00" timeLoss="11.97" rerouteNo="0" devices="tripinfo_flow_z3.2 emissions_flow_z3.2" vType="Car" speedFactor="0.99" vaporized="">
        <emissions CO_abs="1301.47" CO2_abs="214393.09" HC_abs="8.67" PMx_abs="22.20" NOx_abs="75.11" fuel_abs="69503.44" electricity_abs="0.00"/>
    </tripinfo>
    <tripinfo id="flow_z3.3" depart="5.00" departLane="-E28_1" departPos="5.10" departSpeed="10.42" departDelay="0.00" arrival="107.00" arrivalLane="-E29_0" arrivalPos="266.06" arrivalSpeed="13.24" duration="102.00" routeLength="1186.43" waitingTime="0.00" waitingCount="0" stopTime="0.00" timeLoss="13.59" rerouteNo="0" devices="tripinfo_flow_z3.3 emissions_flow_z3.3" vType="Car" speedFactor="0.99" vaporized="">
        <emissions CO_abs="1423.34" CO2_abs="233558.88" HC_abs="9.48" PMx_abs="24.20" NOx_abs="81.81" fuel_abs="75716.73" electricity_abs="0.00"/>
    </tripinfo>
    <tripinfo id="flow_z3.4" depart="7.00" departLane="-E28_1" departPos="5.10" departSpeed="11.71" departDelay="0.34" arrival="109.00" arrivalLane="-E29_0" arrivalPos="266.06" arrivalSpeed="13.25" duration="102.00" routeLength="1186.43" waitingTime="0.00" waitingCount="0" stopTime="0.00" timeLoss="14.92" rerouteNo="0" devices="tripinfo_flow_z3.4 emissions_flow_z3.4" vType="Car" speedFactor="1.01" vaporized="">
        <emissions CO_abs="1540.19" CO2_abs="243323.56" HC_abs="10.25" PMx_abs="23.59" NOx_abs="84.88" fuel_abs="78882.20" electricity_abs="0.00"/>
    </tripinfo>
    <tripinfo id="flow_z3.5" depart="9.00" departLane="-E28_1" departPos="5.10" departSpeed="12.78" departDelay="0.67" arrival="110.00" arrivalLane="-E29_1" arrivalPos="266.06" arrivalSpeed="13.69" duration="101.00" routeLength="1186.43" waitingTime="0.00" waitingCount="0" stopTime="0.00" timeLoss="18.74" rerouteNo="0" devices="tripinfo_flow_z3.5 emissions_flow_z3.5" vType="Car" speedFactor="1.06" vaporized="">
        <emissions CO_abs="1619.52" CO2_abs="247239.37" HC_abs="10.78" PMx_abs="23.69" NOx_abs="86.40" fuel_abs="80151.61" electricity_abs="0.00"/>
    </tripinfo>
    <tripinfo id="flow_z3.6" depart="10.00" departLane="-E28_1" departPos="5.10" departSpeed="9.98" departDelay="0.00" arrival="111.00" arrivalLane="-E29_0" arrivalPos="266.06" arrivalSpeed="14.32" duration="101.00" routeLength="1186.43" waitingTime="0.00" waitingCount="0" stopTime="0.00" timeLoss="22.01" rerouteNo="0" devices="tripinfo_flow_z3.6 emissions_flow_z3.6" vType="Car" speedFactor="1.10" vaporized="">
        <emissions CO_abs="1674.71" CO2_abs="262064.28" HC_abs="11.15" PMx_abs="25.97" NOx_abs="91.89" fuel_abs="84957.72" electricity_abs="0.00"/>
    </tripinfo>
    <tripinfo id="flow_z3.8" depart="14.00" departLane="-E28_1" departPos="5.10" departSpeed="10.71" departDelay="0.67" arrival="114.00" arrivalLane="-E29_0" arrivalPos="266.06" arrivalSpeed="13.74" duration="100.00" routeLength="1186.43" waitingTime="0.00" waitingCount="0" stopTime="0.00" timeLoss="18.01" rerouteNo="0" devices="tripinfo_flow_z3.8 emissions_flow_z3.8" vType="Car" speedFactor="1.07" vaporized="">
        <emissions CO_abs="1637.53" CO2_abs="250039.72" HC_abs="10.90" PMx_abs="24.80" NOx_abs="87.58" fuel_abs="81059.47" electricity_abs="0.00"/>
    </tripinfo>
    <tripinfo id="12" depart="24.00" departLane="E6_0" departPos="5.10" departSpeed="0.00" departDelay="0.00" arrival="128.00" arrivalLane="-E32_0" arrivalPos="266.06" arrivalSpeed="13.14" duration="104.00" routeLength="1239.52" waitingTime="0.00" waitingCount="0" stopTime="0.00" timeLoss="10.62" rerouteNo="0" devices="tripinfo_12 emissions_12" vType="Car" speedFactor="0.97" vaporized="">
        <emissions CO_abs="1233.72" CO2_abs="232503.34" HC_abs="8.26" PMx_abs="26.64" NOx_abs="81.13" fuel_abs="75374.66" electricity_abs="0.00"/>
    </tripinfo>
    <tripinfo id="21" depart="42.00" departLane="-E25_0" departPos="5.10" departSpeed="0.00" departDelay="0.00" arrival="131.00" arrivalLane="-E3_0" arrivalPos="483.20" arrivalSpeed="12.67" duration="89.00" routeLength="1079.36" waitingTime="0.00" waitingCount="0" stopTime="0.00" timeLoss="7.67" rerouteNo="0" devices="tripinfo_21 emissions_21" vType="Car" speedFactor="0.96" vaporized="">
        <emissions CO_abs="1152.62" CO2_abs="203222.92" HC_abs="7.70" PMx_abs="22.20" NOx_abs="70.65" fuel_abs="65882.21" electricity_abs="0.00"/>
    </tripinfo>
    <tripinfo id="30" depart="60.00" departLane="E9_0" departPos="5.10" departSpeed="0.00" departDelay="0.00" arrival="134.00" arrivalLane="E19_1" arrivalPos="283.20" arrivalSpeed="15.29" duration="74.00" routeLength="878.10" waitingTime="4.00" waitingCount="1" stopTime="0.00" timeLoss="17.55" rerouteNo="0" devices="tripinfo_30 emissions_30" vType="Car" speedFactor="1.13" vaporized="">
        <emissions CO_abs="1363.33" CO2_abs="216920.64" HC_abs="9.12" PMx_abs="22.61" NOx_abs="75.58" fuel_abs="70322.66" electricity_abs="0.00"/>
    </tripinfo>
    <tripinfo id="4" depart="8.00" departLane="-E39_0" departPos="5.10" departSpeed="0.00" departDelay="0.00" arrival="147.00" arrivalLane="-E10_0" arrivalPos="479.20" arrivalSpeed="11.51" duration="139.00" routeLength="1552.66" waitingTime="0.00" waitingCount="0" stopTime="0.00" timeLoss="13.34" rerouteNo="0" devices="tripinfo_4 emissions_4" vType="Car" speedFactor="0.90" vaporized="">
        <emissions CO_abs="1471.99" CO2_abs="297168.75" HC_abs="9.83" PMx_abs="32.18" NOx_abs="102.44" fuel_abs="96338.36" electricity_abs="0.00"/>
    </tripinfo>
    <tripinfo id="1" depart="2.00" departLane="-E29_0" departPos="5.10" departSpeed="0.00" departDelay="0.00" arrival="154.00" arrivalLane="-E24_0" arrivalPos="283.20" arrivalSpeed="14.11" duration="152.00" routeLength="1942.97" waitingTime="0.00" waitingCount="0" stopTime="0.00" timeLoss="15.56" rerouteNo="0" devices="tripinfo_1 emissions_1" vType="Car" speedFactor="1.04" vaporized="">
        <emissions CO_abs="2229.33" CO2_abs="365594.70" HC_abs="14.94" PMx_abs="42.64" NOx_abs="128.55" fuel_abs="118521.06" electricity_abs="0.00"/>
    </tripinfo>
    <tripinfo id="23" depart="46.00" departLane="-E16_0" departPos="5.10" departSpeed="0.00" departDelay="0.00" arrival="161.00" arrivalLane="-E29_0" arrivalPos="266.06" arrivalSpeed="13.83" duration="115.00" routeLength="1384.98" waitingTime="2.00" waitingCount="1" stopTime="0.00" timeLoss="17.99" rerouteNo="0" devices="tripinfo_23 emissions_23" vType="Car" speedFactor="1.05" vaporized="">
        <emissions CO_abs="1749.04" CO2_abs="298848.31" HC_abs="11.71" PMx_abs="32.42" NOx_abs="103.59" fuel_abs="96882.62" electricity_abs="0.00"/>
    </tripinfo>
    <tripinfo id="flow_z1.0" depart="0.00" departLane="-E1_0" departPos="5.10" departSpeed="13.81" departDelay="0.00" arrival="168.00" arrivalLane="E19_0" arrivalPos="283.20" arrivalSpeed="13.28" duration="168.00" routeLength="2181.19" waitingTime="0.00" waitingCount="0" stopTime="0.00" timeLoss="8.53" rerouteNo="0" devices="tripinfo_flow_z1.0 emissions_flow_z1.0" vType="Car" speedFactor="0.99" vaporized="">
        <emissions CO_abs="1955.39" CO2_abs="336997.22" HC_abs="13.15" PMx_abs="45.36" NOx_abs="121.51" fuel_abs="109250.65" electricity_abs="0.00"/>
    </tripinfo>
    <tripinfo id="48" depart="96.00" departLane="E9_0" departPos="5.10" departSpeed="0.00" departDelay="0.00" arrival="173.00" arrivalLane="E10_0" arrivalPos="479.20" arrivalSpeed="8.33" duration="77.00" routeLength="772.65" waitingTime="0.00" waitingCount="0" stopTime="0.00" timeLoss="22.37" rerouteNo="0" devices="tripinfo_48 emissions_48" vType="Car" speedFactor="1.03" vaporized="">
        <emissions CO_abs="773.60" CO2_abs="177480.64" HC_abs="5.16" PMx_abs="18.30" NOx_abs="62.49" fuel_abs="57537.11" electricity_abs="0.00"/>
    </tripinfo>
    <tripinfo id="16" depart="32.00" departLane="E10_0" departPos="5.10" departSpeed="0.00" departDelay="0.00" arrival="177.00" arrivalLane="E7_0" arrivalPos="466.06" arrivalSpeed="13.51" duration="145.00" routeLength="1801.77" waitingTime="2.00" waitingCount="1" stopTime="0.00" timeLoss="19.83" rerouteNo="0" devices="tripinfo_16 emissions_16" vType="Car" speedFactor="1.06" vaporized="">
        <emissions CO_abs="2325.37" CO2_abs="369086.95" HC_abs="15.54" PMx_abs="38.37" NOx_abs="128.80" fuel_abs="119652.89" electricity_abs="0.00"/>
    </tripinfo>
    <tripinfo id="flow_z1.3" depart="5.00" departLane="-E1_0" departPos="5.10" departSpeed="10.50" departDelay="0.00" arrival="177.00" arrivalLane="E19_0" arrivalPos="283.20" arrivalSpeed="13.65" duration="172.00" routeLength="2181.19" waitingTime="0.00" waitingCount="0" stopTime="0.00" timeLoss="17.68" rerouteNo="0" devices="tripinfo_flow_z1.3 emissions_flow_z1.3" vType="Car" speedFactor="1.03" vaporized="">
        <emissions CO_abs="2658.41" CO2_abs="401376.87" HC_abs="17.74" PMx_abs="44.45" NOx_abs="142.92" fuel_abs="130121.19" electricity_abs="0.00"/>
    </tripinfo>
    <tripinfo id="flow_z1.1" depart="2.00" departLane="-E1_0" departPos="5.10" departSpeed="13.03" departDelay="0.33" arrival="181.00" arrivalLane="E19_0" arrivalPos="283.20" arrivalSpeed="12.78" duration="179.00" routeLength="2181.19" waitingTime="0.00" waitingCount="0" stopTime="0.00" timeLoss="10.78" rerouteNo="0" devices="tripinfo_flow_z1.1 emissions_flow_z1.1" vType="Car" speedFactor="0.94" vaporized="">
        <emissions CO_abs="1963.31" CO2_abs="363276.21" HC_abs="13.17" PMx_abs="45.11" NOx_abs="129.66" fuel_abs="117769.95" electricity_abs="0.00"/>
    </tripinfo>
    <tripinfo id="flow_z3.7" depart="12.00" departLane="-E28_1" departPos="5.10" departSpeed="9.90" departDelay="0.34" arrival="185.00" arrivalLane="-E29_0" arrivalPos="266.06" arrivalSpeed="11.73" duration="173.00" routeLength="1186.43" waitingTime="62.00" waitingCount="1" stopTime="0.00" timeLoss="76.34" rerouteNo="0" devices="tripinfo_flow_z3.7 emissions_flow_z3.7" vType="Car" speedFactor="0.90" vaporized="">
        <emissions CO_abs="1182.50" CO2_abs="337666.09" HC_abs="7.89" PMx_abs="24.96" NOx_abs="121.99" fuel_abs="109467.72" electricity_abs="0.00"/>
    </tripinfo>
    <tripinfo id="11" depart="22.00" departLane="-E33_0" departPos="5.10" departSpeed="0.00" departDelay="0.00" arrival="186.00" arrivalLane="-E2_0" arrivalPos="479.20" arrivalSpeed="13.94" duration="164.00" routeLength="2093.43" waitingTime="0.00" waitingCount="0" stopTime="0.00" timeLoss="14.82" rerouteNo="0" devices="tripinfo_11 emissions_11" vType="Car" speedFactor="1.03" vaporized="">
        <emissions CO_abs="2391.80" CO2_abs="383144.95" HC_abs="15.99" PMx_abs="43.07" NOx_abs="134.73" fuel_abs="124210.58" electricity_abs="0.00"/>
    </tripinfo>
    <tripinfo id="flow_z3.15" depart="26.00" departLane="-E28_1" departPos="5.10" departSpeed="6.40" departDelay="1.01" arrival="186.00" arrivalLane="-E29_1" arrivalPos="266.06" arrivalSpeed="14.60" duration="160.00" routeLength="1186.43" waitingTime="48.00" waitingCount="2" stopTime="0.00" timeLoss="78.70" rerouteNo="0" devices="tripinfo_flow_z3.15 emissions_flow_z3.15" vType="Car" speedFactor="1.07" vaporized="">
        <emissions CO_abs="1705.95" CO2_abs="368690.65" HC_abs="11.37" PMx_abs="27.27" NOx_abs="130.29" fuel_abs="119524.99" electricity_abs="0.00"/>
    </tripinfo>
    <tripinfo id="flow_z3.14" depart="24.00" departLane="-E28_1" departPos="5.10" departSpeed="5.36" departDelay="0.68" arrival="187.00" arrivalLane="-E29_0" arrivalPos="266.06" arrivalSpeed="12.36" duration="163.00" routeLength="1186.43" waitingTime="53.00" waitingCount="1" stopTime="0.00" timeLoss="69.45" rerouteNo="0" devices="tripinfo_flow_z3.14 emissions_flow_z3.14" vType="Car" speedFactor="0.93" vaporized="">
        <emissions CO_abs="1488.17" CO2_abs="347944.74" HC_abs="9.90" PMx_abs="24.47" NOx_abs="124.00" fuel_abs="112799.56" electricity_abs="0.00"/>
    </tripinfo>
    <tripinfo id="flow_z3.9" depart="15.00" departLane="-E28_1" departPos="5.10" departSpeed="7.03" departDelay="0.01" arrival="188.00" arrivalLane="-E29_1" arrivalPos="266.06" arrivalSpeed="16.11" duration="173.00" routeLength="1186.43" waitingTime="56.00" waitingCount="2" stopTime="0.00" timeLoss="100.09" rerouteNo="0" devices="tripinfo_flow_z3.9 emissions_flow_z3.9" vType="Car" speedFactor="1.21" vaporized="">
        <emissions CO_abs="1977.29" CO2_abs="408548.28" HC_abs="13.12" PMx_abs="25.59" NOx_abs="144.74" fuel_abs="132446.13" electricity_abs="0.00"/>
    </tripinfo>
    <tripinfo id="flow_z3.17" depart="30.00" departLane="-E28_1" departPos="5.10" departSpeed="5.98" departDelay="1.68" arrival="190.00" arrivalLane="-E29_0" arrivalPos="266.06" arrivalSpeed="15.42" duration="160.00" routeLength="1186.43" waitingTime="45.00" waitingCount="1" stopTime="0.00" timeLoss="81.14" rerouteNo="0" devices="tripinfo_flow_z3.17 emissions_flow_z3.17" vType="Car" speedFactor="1.11" vaporized="">
        <emissions CO_abs="2053.17" CO2_abs="392213.32" HC_abs="13.63" PMx_abs="25.65" NOx_abs="137.02" fuel_abs="127150.27" electricity_abs="0.00"/>
    </tripinfo>
    <tripinfo id="flow_z2.1" depart="2.00" departLane="-E18_0" departPos="5.10" departSpeed="13.62" departDelay="0.33" arrival="191.00" arrivalLane="-E15_0" arrivalPos="479.20" arrivalSpeed="13.79" duration="189.00" routeLength="1988.38" waitingTime="23.00" waitingCount="1" stopTime="0.00" timeLoss="52.97" rerouteNo="0" devices="tripinfo_flow_z2.1 emissions_flow_z2.1" vType="Car" speedFactor="1.06" vaporized="">
        <emissions CO_abs="2264.33" CO2_abs="419814.33" HC_abs="15.13" PMx_abs="42.20" NOx_abs="149.06" fuel_abs="136098.66" electricity_abs="0.00"/>
    </tripinfo>
    <tripinfo id="flow_z1.2" depart="4.00" departLane="-E1_0" departPos="5.10" departSpeed="13.56" departDelay="0.67" arrival="194.00" arrivalLane="E19_0" arrivalPos="283.20" arrivalSpeed="8.33" duration="190.00" routeLength="2181.19" waitingTime="0.00" waitingCount="0" stopTime="0.00" timeLoss="51.42" rerouteNo="0" devices="tripinfo_flow_z1.2 emissions_flow_z1.2" vType="Car" speedFactor="1.14" vaporized="">
        <emissions CO_abs="2120.59" CO2_abs="401448.69" HC_abs="14.20" PMx_abs="47.84" NOx_abs="145.64" fuel_abs="130145.16" electricity_abs="0.00"/>
    </tripinfo>
    <tripinfo id="flow_z2.2" depart="4.00" departLane="-E18_0" departPos="5.10" departSpeed="13.97" departDelay="0.67" arrival="195.00" arrivalLane="-E15_0" arrivalPos="479.20" arrivalSpeed="13.97" duration="191.00" routeLength="1988.38" waitingTime="20.00" waitingCount="1" stopTime="0.00" timeLoss="47.23" rerouteNo="0" devices="tripinfo_flow_z2.2 emissions_flow_z2.2" vType="Car" speedFactor="1.01" vaporized="">
        <emissions CO_abs="2245.63" CO2_abs="428562.59" HC_abs="15.01" PMx_abs="42.49" NOx_abs="150.30" fuel_abs="138934.62" electricity_abs="0.00"/>
    </tripinfo>
    <tripinfo id="18" depart="36.00" departLane="E32_0" departPos="5.10" departSpeed="0.00" departDelay="0.00" arrival="196.00" arrivalLane="E17_0" arrivalPos="465.43" arrivalSpeed="12.75" duration="160.00" routeLength="1839.24" waitingTime="0.00" waitingCount="0" stopTime="0.00" timeLoss="16.94" rerouteNo="0" devices="tripinfo_18 emissions_18" vType="Car" speedFactor="0.95" vaporized="">
        <emissions CO_abs="2105.33" CO2_abs="379130.62" HC_abs="14.03" PMx_abs="38.71" NOx_abs="131.01" fuel_abs="122909.15" electricity_abs="0.00"/>
    </tripinfo>
    <tripinfo id="flow_z2.0" depart="0.00" departLane="-E18_0" departPos="5.10" departSpeed="12.79" departDelay="0.00" arrival="197.00" arrivalLane="-E15_0" arrivalPos="479.20" arrivalSpeed="12.79" duration="197.00" routeLength="1988.38" waitingTime="22.00" waitingCount="1" stopTime="0.00" timeLoss="38.96" rerouteNo="0" devices="tripinfo_flow_z2.0 emissions_flow_z2.0" vType="Car" speedFactor="0.92" vaporized="">
        <emissions CO_abs="1876.12" CO2_abs="397932.21" HC_abs="12.54" PMx_abs="40.34" NOx_abs="140.08" fuel_abs="129004.90" electricity_abs="0.00"/>
    </tripinfo>
    <tripinfo id="54" depart="108.00" departLane="-E6_0" departPos="5.10" departSpeed="0.00" departDelay="0.00" arrival="197.00" arrivalLane="E6_1" arrivalPos="466.06" arrivalSpeed="7.10" duration="89.00" routeLength="1043.03" waitingTime="1.00" waitingCount="1" stopTime="0.00" timeLoss="18.46" rerouteNo="0" devices="tripinfo_54 emissions_54" vType="Car" speedFactor="1.10" vaporized="">
        <emissions CO_abs="1491.99" CO2_abs="244284.93" HC_abs="9.96" PMx_abs="24.24" NOx_abs="84.16" fuel_abs="79193.74" electricity_abs="0.00"/>
    </tripinfo>
    <tripinfo id="39" depart="80.00" departLane="-E28_0" departPos="5.10" departSpeed="0.00" departDelay="2.00" arrival="201.00" arrivalLane="-E26_1" arrivalPos="265.43" arrivalSpeed="8.33" duration="121.00" routeLength="860.33" waitingTime="19.00" waitingCount="1" stopTime="0.00" timeLoss="71.86" rerouteNo="0" devices="tripinfo_39 emissions_39" vType="Car" speedFactor="1.27" vaporized="">
        <emissions CO_abs="1063.16" CO2_abs="276429.22" HC_abs="7.06" PMx_abs="21.21" NOx_abs="96.71" fuel_abs="89614.95" electricity_abs="0.00"/>
    </tripinfo>
    <tripinfo id="flow_z2.4" depart="7.00" departLane="-E18_0" departPos="5.10" departSpeed="12.19" departDelay="0.34" arrival="201.00" arrivalLane="-E15_1" arrivalPos="479.20" arrivalSpeed="10.04" duration="194.00" routeLength="1984.04" waitingTime="1.00" waitingCount="1" stopTime="0.00" timeLoss="56.55" rerouteNo="0" devices="tripinfo_flow_z2.4 emissions_flow_z2.4" vType="Car" speedFactor="1.05" vaporized="">
        <emissions CO_abs="2306.63" CO2_abs="427220.28" HC_abs="15.36" PMx_abs="39.55" NOx_abs="147.31" fuel_abs="138498.96" electricity_abs="0.00"/>
    </tripinfo>
    <tripinfo id="3" depart="6.00" departLane="E37_0" departPos="5.10" departSpeed="0.00" departDelay="0.00" arrival="202.00" arrivalLane="-E14_1" arrivalPos="279.20" arrivalSpeed="14.38" duration="196.00" routeLength="1837.99" waitingTime="47.00" waitingCount="1" stopTime="0.00" timeLoss="68.58" rerouteNo="0" devices="tripinfo_3 emissions_3" vType="Car" speedFactor="1.06" vaporized="">
        <emissions CO_abs="2446.64" CO2_abs="465245.51" HC_abs="16.35" PMx_abs="41.19" NOx_abs="165.67" fuel_abs="150826.86" electricity_abs="0.00"/>
    </tripinfo>
    <tripinfo id="flow_z2.3" depart="5.00" departLane="-E18_0" departPos="5.10" departSpeed="11.06" departDelay="0.00" arrival="202.00" arrivalLane="-E15_0" arrivalPos="479.20" arrivalSpeed="7.58" duration="197.00" routeLength="1984.04" waitingTime="4.00" waitingCount="2" stopTime="0.00" timeLoss="58.87" rerouteNo="0" devices="tripinfo_flow_z2.3 emissions_flow_z2.3" vType="Car" speedFactor="1.05" vaporized="">
        <emissions CO_abs="2169.04" CO2_abs="422568.97" HC_abs="14.46" PMx_abs="40.40" NOx_abs="145.95" fuel_abs="136991.33" electricity_abs="0.00"/>
    </tripinfo>
    <tripinfo id="flow_z2.6" depart="10.00" departLane="-E18_0" departPos="5.10" departSpeed="11.31" departDelay="0.00" arrival="204.00" arrivalLane="-E15_0" arrivalPos="479.20" arrivalSpeed="11.52" duration="194.00" routeLength="1988.38" waitingTime="0.00" waitingCount="0" stopTime="0.00" timeLoss="36.61" rerouteNo="0" devices="tripinfo_flow_z2.6 emissions_flow_z2.6" vType="Car" speedFactor="0.92" vaporized="">
        <emissions CO_abs="1910.52" CO2_abs="406954.81" HC_abs="12.74" PMx_abs="40.64" NOx_abs="139.25" fuel_abs="131929.47" electricity_abs="0.00"/>
    </tripinfo>
    <tripinfo id="flow_z2.10" depart="17.00" departLane="-E18_0" departPos="5.10" departSpeed="9.76" departDelay="0.34" arrival="204.00" arrivalLane="-E15_1" arrivalPos="479.20" arrivalSpeed="13.26" duration="187.00" routeLength="1988.38" waitingTime="2.00" waitingCount="2" stopTime="0.00" timeLoss="37.85" rerouteNo="0" devices="tripinfo_flow_z2.10 emissions_flow_z2.10" vType="Car" speedFactor="0.97" vaporized="">
        <emissions CO_abs="1763.59" CO2_abs="373025.40" HC_abs="11.79" PMx_abs="40.35" NOx_abs="130.28" fuel_abs="120930.37" electricity_abs="0.00"/>
    </tripinfo>
    <tripinfo id="flow_z2.8" depart="14.00" departLane="-E18_0" departPos="5.10" departSpeed="11.12" departDelay="0.67" arrival="206.00" arrivalLane="-E15_0" arrivalPos="479.20" arrivalSpeed="13.33" duration="192.00" routeLength="1984.04" waitingTime="0.00" waitingCount="0" stopTime="0.00" timeLoss="49.08" rerouteNo="0" devices="tripinfo_flow_z2.8 emissions_flow_z2.8" vType="Car" speedFactor="1.01" vaporized="">
        <emissions CO_abs="2201.01" CO2_abs="412640.86" HC_abs="14.65" PMx_abs="37.78" NOx_abs="141.09" fuel_abs="133772.50" electricity_abs="0.00"/>
    </tripinfo>
    <tripinfo id="flow_z3.13" depart="23.00" departLane="-E28_1" departPos="5.10" departSpeed="9.21" departDelay="1.34" arrival="208.00" arrivalLane="-E29_1" arrivalPos="266.06" arrivalSpeed="11.24" duration="185.00" routeLength="1186.43" waitingTime="50.00" waitingCount="1" stopTime="0.00" timeLoss="87.95" rerouteNo="0" devices="tripinfo_flow_z3.13 emissions_flow_z3.13" vType="Car" speedFactor="0.90" vaporized="">
        <emissions CO_abs="1136.99" CO2_abs="347300.97" HC_abs="7.55" PMx_abs="22.85" NOx_abs="121.03" fuel_abs="112590.92" electricity_abs="0.00"/>
    </tripinfo>
    <tripinfo id="49" depart="98.00" departLane="E7_0" departPos="5.10" departSpeed="0.00" departDelay="0.00" arrival="210.00" arrivalLane="E34_0" arrivalPos="266.06" arrivalSpeed="10.38" duration="112.00" routeLength="1101.24" waitingTime="0.00" waitingCount="0" stopTime="0.00" timeLoss="11.34" rerouteNo="0" devices="tripinfo_49 emissions_49" vType="Car" speedFactor="0.81" vaporized="">
        <emissions CO_abs="797.09" CO2_abs="218933.95" HC_abs="5.33" PMx_abs="23.40" NOx_abs="75.13" fuel_abs="70975.80" electricity_abs="0.00"/>
    </tripinfo>
    <tripinfo id="flow_z2.15" depart="25.00" departLane="-E18_0" departPos="5.10" departSpeed="9.45" departDelay="0.01" arrival="210.00" arrivalLane="-E15_0" arrivalPos="479.20" arrivalSpeed="14.09" duration="185.00" routeLength="1988.38" waitingTime="3.00" waitingCount="1" stopTime="0.00" timeLoss="43.56" rerouteNo="0" devices="tripinfo_flow_z2.15 emissions_flow_z2.15" vType="Car" speedFactor="1.03" vaporized="">
        <emissions CO_abs="2310.16" CO2_abs="427184.78" HC_abs="15.42" PMx_abs="42.02" NOx_abs="146.26" fuel_abs="138487.57" electricity_abs="0.00"/>
    </tripinfo>
    <tripinfo id="flow_z3.20" depart="36.00" departLane="-E28_1" departPos="5.10" departSpeed="8.50" departDelay="2.68" arrival="210.00" arrivalLane="-E29_1" arrivalPos="266.06" arrivalSpeed="15.71" duration="174.00" routeLength="1186.43" waitingTime="39.00" waitingCount="1" stopTime="0.00" timeLoss="97.46" rerouteNo="0" devices="tripinfo_flow_z3.20 emissions_flow_z3.20" vType="Car" speedFactor="1.14" vaporized="">
        <emissions CO_abs="1783.99" CO2_abs="384636.09" HC_abs="11.81" PMx_abs="23.80" NOx_abs="132.63" fuel_abs="124693.86" electricity_abs="0.00"/>
    </tripinfo>
    <tripinfo id="flow_z2.9" depart="15.00" departLane="-E18_0" departPos="5.10" departSpeed="8.06" departDelay="0.01" arrival="213.00" arrivalLane="-E15_0" arrivalPos="479.20" arrivalSpeed="13.92" duration="198.00" routeLength="1984.04" waitingTime="3.00" waitingCount="2" stopTime="0.00" timeLoss="63.94" rerouteNo="0" devices="tripinfo_flow_z2.9 emissions_flow_z2.9" vType="Car" speedFactor="1.08" vaporized="">
        <emissions CO_abs="2231.08" CO2_abs="421928.63" HC_abs="14.87" PMx_abs="39.40" NOx_abs="146.35" fuel_abs="136783.63" electricity_abs="0.00"/>
    </tripinfo>
    <tripinfo id="flow_z3.10" depart="17.00" departLane="-E28_1" departPos="5.10" departSpeed="7.25" departDelay="0.34" arrival="214.00" arrivalLane="-E29_0" arrivalPos="266.06" arrivalSpeed="8.33" duration="197.00" routeLength="1186.43" waitingTime="55.00" waitingCount="1" stopTime="0.00" timeLoss="112.10" rerouteNo="0" devices="tripinfo_flow_z3.10 emissions_flow_z3.10" vType="Car" speedFactor="1.02" vaporized="">
        <emissions CO_abs="944.49" CO2_abs="382361.63" HC_abs="6.31" PMx_abs="29.57" NOx_abs="138.66" fuel_abs="123957.86" electricity_abs="0.00"/>
    </tripinfo>
    <tripinfo id="flow_z3.29" depart="55.00" departLane="-E28_1" departPos="5.10" departSpeed="6.12" departDelay="6.69" arrival="217.00" arrivalLane="-E29_1" arrivalPos="266.06" arrivalSpeed="16.49" duration="162.00" routeLength="1186.43" waitingTime="41.00" waitingCount="3" stopTime="0.00" timeLoss="92.33" rerouteNo="0" devices="tripinfo_flow_z3.29 emissions_flow_z3.29" vType="Car" speedFactor="1.26" vaporized="">
        <emissions CO_abs="2333.04" CO2_abs="433645.33" HC_abs="15.48" PMx_abs="27.19" NOx_abs="150.34" fuel_abs="140581.75" electricity_abs="0.00"/>
    </tripinfo>
    <tripinfo id="68" depart="136.00" departLane="-E13_0" departPos="5.10" departSpeed="0.00" departDelay="0.00" arrival="219.00" arrivalLane="E27_1" arrivalPos="279.20" arrivalSpeed="13.91" duration="83.00" routeLength="772.65" waitingTime="17.00" waitingCount="1" stopTime="0.00" timeLoss="27.09" rerouteNo="0" devices="tripinfo_68 emissions_68" vType="Car" speedFactor="1.01" vaporized="">
        <emissions CO_abs="1068.14" CO2_abs="202134.35" HC_abs="7.10" PMx_abs="15.95" NOx_abs="70.44" fuel_abs="65529.16" electricity_abs="0.00"/>
    </tripinfo>
    <tripinfo id="flow_z3.11" depart="19.00" departLane="-E28_1" departPos="5.10" departSpeed="7.56" departDelay="0.67" arrival="221.00" arrivalLane="-E29_0" arrivalPos="266.06" arrivalSpeed="8.33" duration="202.00" routeLength="1186.43" waitingTime="56.00" waitingCount="2" stopTime="0.00" timeLoss="123.81" rerouteNo="0" devices="tripinfo_flow_z3.11 emissions_flow_z3.11" vType="Car" speedFactor="1.10" vaporized="">
        <emissions CO_abs="823.95" CO2_abs="378851.64" HC_abs="5.51" PMx_abs="29.34" NOx_abs="137.39" fuel_abs="122820.09" electricity_abs="0.00"/>
    </tripinfo>
    <tripinfo id="flow_z2.17" depart="29.00" departLane="-E18_0" departPos="5.10" departSpeed="15.09" departDelay="0.68" arrival="223.00" arrivalLane="-E15_0" arrivalPos="479.20" arrivalSpeed="6.48" duration="194.00" routeLength="1988.38" waitingTime="0.00" waitingCount="0" stopTime="0.00" timeLoss="60.87" rerouteNo="0" devices="tripinfo_flow_z2.17 emissions_flow_z2.17" vType="Car" speedFactor="1.09" vaporized="">
        <emissions CO_abs="2237.45" CO2_abs="423712.02" HC_abs="14.92" PMx_abs="39.06" NOx_abs="142.69" fuel_abs="137361.43" electricity_abs="0.00"/>
    </tripinfo>