<?xml version="1.0" encoding="UTF-8"?>

<!-- generated on 2026-05-30T17:28:18.934231+00:00 by Eclipse SUMO sumo 1.26.0
<sumoConfiguration xmlns:xsi="http://www.w3.org/2001/XMLSchema-instance" xsi:noNamespaceSchemaLocation="http://sumo.dlr.de/xsd/sumoConfiguration.xsd">

    <input>
        <net-file value="manhattan.net.xml"/>
        <route-files value="routes.rou.xml,background.rou.xml"/>
        <additional-files value="mosaic_types.add.xml"/>
    </input>

    <output>
        <tripinfo-output value="/home/netsim/opt/tpnpr/tripinfo.xml"/>
    </output>

    <time>
        <begin value="0"/>
        <end value="3600"/>
        <step-length value="1.00"/>
    </time>

    <processing>
        <ignore-route-errors value="true"/>
        <time-to-teleport value="0"/>
    </processing>

    <report>
        <verbose value="true"/>
        <no-step-log value="true"/>
    </report>

    <emissions>
        <device.emissions.probability value="1.0"/>
    </emissions>

    <traci_server>
        <remote-port value="38771"/>
    </traci_server>

    <random_number>
        <seed value="100000"/>
    </random_number>

</sumoConfiguration>
-->

<tripinfos xmlns:xsi="http://www.w3.org/2001/XMLSchema-instance" xsi:noNamespaceSchemaLocation="http://sumo.dlr.de/xsd/tripinfo_file.xsd">
    <tripinfo id="13" depart="26.00" departLane="-E15_0" departPos="5.10" departSpeed="0.00" departDelay="0.00" arrival="64.00" arrivalLane="-E15_0" arrivalPos="479.20" arrivalSpeed="14.03" duration="38.00" routeLength="474.10" waitingTime="0.00" waitingCount="0" stopTime="0.00" timeLoss="5.19" rerouteNo="0" devices="tripinfo_13 emissions_13" vType="Car" speedFactor="1.06" vaporized="">
        <emissions CO_abs="592.85" CO2_abs="102158.69" HC_abs="3.97" PMx_abs="11.03" NOx_abs="35.04" fuel_abs="33118.42" electricity_abs="0.00"/>
    </tripinfo>
    <tripinfo id="22" depart="44.00" departLane="-E14_0" departPos="5.10" departSpeed="0.00" departDelay="0.00" arrival="88.00" arrivalLane="-E25_0" arrivalPos="279.20" arrivalSpeed="13.77" duration="44.00" routeLength="574.10" waitingTime="0.00" waitingCount="0" stopTime="0.00" timeLoss="5.37" rerouteNo="0" devices="tripinfo_22 emissions_22" vType="Car" speedFactor="1.08" vaporized="">
        <emissions CO_abs="774.99" CO2_abs="122112.22" HC_abs="5.18" PMx_abs="13.30" NOx_abs="42.37" fuel_abs="39587.07" electricity_abs="0.00"/>
    </tripinfo>
    <tripinfo id="flow_z3.0" depart="0.00" departLane="-E28_1" departPos="5.10" departSpeed="12.68" departDelay="0.00" arrival="104.00" arrivalLane="-E29_0" arrivalPos="266.06" arrivalSpeed="11.39" duration="104.00" routeLength="1186.43" waitingTime="0.00" waitingCount="0" stopTime="0.00" timeLoss="7.97" rerouteNo="0" devices="tripinfo_flow_z3.0 emissions_flow_z3.0" vType="Car" speedFactor="0.91" vaporized="">
        <emissions CO_abs="927.92" CO2_abs="197820.40" HC_abs="6.23" PMx_abs="24.60" NOx_abs="69.93" fuel_abs="64131.15" electricity_abs="0.00"/>
    </tripinfo>
    <tripinfo id="flow_z3.2" depart="2.00" departLane="-E28_1" departPos="5.10" departSpeed="5.68" departDelay="0.33" arrival="104.00" arrivalLane="-E29_1" arrivalPos="266.06" arrivalSpeed="12.67" duration="102.00" routeLength="1186.43" waitingTime="0.00" waitingCount="0" stopTime="0.00" timeLoss="13.77" rerouteNo="0" devices="tripinfo_flow_z3.2 emissions_flow_z3.2" vType="Car" speedFactor="0.99" vaporized="">
        <emissions CO_abs="1358.48" CO2_abs="232543.14" HC_abs="9.06" PMx_abs="24.10" NOx_abs="80.94" fuel_abs="75387.46" electricity_abs="0.00"/>
    </tripinfo>
    <tripinfo id="flow_z3.1" depart="1.00" departLane="-E28_1" departPos="5.10" departSpeed="10.10" departDelay="0.17" arrival="109.00" arrivalLane="-E29_0" arrivalPos="266.06" arrivalSpeed="12.31" duration="108.00" routeLength="1186.43" waitingTime="0.00" waitingCount="0" stopTime="0.00" timeLoss="11.42" rerouteNo="0" devices="tripinfo_flow_z3.1 emissions_flow_z3.1" vType="Car" speedFactor="0.90" vaporized="">
        <emissions CO_abs="1107.72" CO2_abs="221928.33" HC_abs="7.40" PMx_abs="24.58" NOx_abs="77.50" fuel_abs="71946.49" electricity_abs="0.00"/>
    </tripinfo>
    <tripinfo id="flow_z3.3" depart="4.00" departLane="-E28_1" departPos="5.10" departSpeed="5.55" departDelay="1.50" arrival="110.00" arrivalLane="-E29_1" arrivalPos="266.06" arrivalSpeed="13.69" duration="106.00" routeLength="1186.43" waitingTime="0.00" waitingCount="0" stopTime="0.00" timeLoss="17.62" rerouteNo="0" devices="tripinfo_flow_z3.3 emissions_flow_z3.3" vType="Car" speedFactor="0.99" vaporized="">
        <emissions CO_abs="1461.52" CO2_abs="247934.29" HC_abs="9.73" PMx_abs="24.61" NOx_abs="85.88" fuel_abs="80377.00" electricity_abs="0.00"/>
    </tripinfo>
    <tripinfo id="flow_z3.4" depart="6.00" departLane="-E28_1" departPos="5.10" departSpeed="4.72" departDelay="2.67" arrival="112.00" arrivalLane="-E29_0" arrivalPos="266.06" arrivalSpeed="13.78" duration="106.00" routeLength="1186.43" waitingTime="0.00" waitingCount="0" stopTime="0.00" timeLoss="18.74" rerouteNo="0" devices="tripinfo_flow_z3.4 emissions_flow_z3.4" vType="Car" speedFactor="1.01" vaporized="">
        <emissions CO_abs="1559.06" CO2_abs="252810.73" HC_abs="10.37" PMx_abs="23.81" NOx_abs="87.44" fuel_abs="81957.77" electricity_abs="0.00"/>
    </tripinfo>
    <tripinfo id="flow_z3.6" depart="10.00" departLane="-E28_1" departPos="5.10" departSpeed="2.18" departDelay="5.00" arrival="115.00" arrivalLane="-E29_1" arrivalPos="266.06" arrivalSpeed="14.20" duration="105.00" routeLength="1186.43" waitingTime="0.00" waitingCount="0" stopTime="0.00" timeLoss="26.05" rerouteNo="0" devices="tripinfo_flow_z3.6 emissions_flow_z3.6" vType="Car" speedFactor="1.10" vaporized="">
        <emissions CO_abs="1688.82" CO2_abs="278356.86" HC_abs="11.24" PMx_abs="25.81" NOx_abs="94.99" fuel_abs="90239.36" electricity_abs="0.00"/>
    </tripinfo>
    <tripinfo id="flow_z3.5" depart="8.00" departLane="-E28_1" departPos="5.10" departSpeed="3.73" departDelay="3.84" arrival="116.00" arrivalLane="-E29_0" arrivalPos="266.06" arrivalSpeed="12.27" duration="108.00" routeLength="1186.43" waitingTime="0.00" waitingCount="0" stopTime="0.00" timeLoss="12.79" rerouteNo="0" devices="tripinfo_flow_z3.5 emissions_flow_z3.5" vType="Car" speedFactor="0.92" vaporized="">
        <emissions CO_abs="1225.94" CO2_abs="229151.74" HC_abs="8.17" PMx_abs="23.22" NOx_abs="78.73" fuel_abs="74288.00" electricity_abs="0.00"/>
    </tripinfo>
    <tripinfo id="21" depart="42.00" departLane="-E25_0" departPos="5.10" departSpeed="0.00" departDelay="0.00" arrival="122.00" arrivalLane="-E3_0" arrivalPos="483.20" arrivalSpeed="14.44" duration="80.00" routeLength="1079.36" waitingTime="0.00" waitingCount="0" stopTime="0.00" timeLoss="7.53" rerouteNo="0" devices="tripinfo_21 emissions_21" vType="Car" speedFactor="1.10" vaporized="">
        <emissions CO_abs="1335.52" CO2_abs="200949.60" HC_abs="8.94" PMx_abs="23.60" NOx_abs="71.06" fuel_abs="65145.17" electricity_abs="0.00"/>
    </tripinfo>
    <tripinfo id="30" depart="60.00" departLane="E9_0" departPos="5.10" departSpeed="0.00" departDelay="0.00" arrival="135.00" arrivalLane="E19_0" arrivalPos="283.20" arrivalSpeed="14.85" duration="75.00" routeLength="878.10" waitingTime="4.00" waitingCount="1" stopTime="0.00" timeLoss="16.00" rerouteNo="0" devices="tripinfo_30 emissions_30" vType="Car" speedFactor="1.08" vaporized="">
        <emissions CO_abs="1237.62" CO2_abs="205053.06" HC_abs="8.28" PMx_abs="20.40" NOx_abs="70.76" fuel_abs="66475.32" electricity_abs="0.00"/>
    </tripinfo>
    <tripinfo id="4" depart="8.00" departLane="-E39_0" departPos="5.10" departSpeed="0.00" departDelay="0.00" arrival="142.00" arrivalLane="-E10_0" arrivalPos="479.20" arrivalSpeed="11.81" duration="134.00" routeLength="1552.66" waitingTime="0.00" waitingCount="0" stopTime="0.00" timeLoss="12.27" rerouteNo="0" devices="tripinfo_4 emissions_4" vType="Car" speedFactor="0.93" vaporized="">
        <emissions CO_abs="1484.48" CO2_abs="288488.87" HC_abs="9.93" PMx_abs="32.03" NOx_abs="100.14" fuel_abs="93524.47" electricity_abs="0.00"/>
    </tripinfo>
    <tripinfo id="12" depart="24.00" departLane="E6_0" departPos="5.10" departSpeed="0.00" departDelay="0.00" arrival="147.00" arrivalLane="-E32_0" arrivalPos="266.06" arrivalSpeed="10.20" duration="123.00" routeLength="1239.52" waitingTime="0.00" waitingCount="0" stopTime="0.00" timeLoss="12.31" rerouteNo="0" devices="tripinfo_12 emissions_12" vType="Car" speedFactor="0.81" vaporized="">
        <emissions CO_abs="911.88" CO2_abs="241815.88" HC_abs="6.10" PMx_abs="26.39" NOx_abs="83.19" fuel_abs="78393.86" electricity_abs="0.00"/>
    </tripinfo>
    <tripinfo id="1" depart="2.00" departLane="-E29_0" departPos="5.10" departSpeed="0.00" departDelay="0.00" arrival="153.00" arrivalLane="-E24_0" arrivalPos="283.20" arrivalSpeed="13.21" duration="151.00" routeLength="1942.97" waitingTime="0.00" waitingCount="0" stopTime="0.00" timeLoss="15.33" rerouteNo="0" devices="tripinfo_1 emissions_1" vType="Car" speedFactor="1.04" vaporized="">
        <emissions CO_abs="2198.18" CO2_abs="361192.56" HC_abs="14.73" PMx_abs="42.27" NOx_abs="126.97" fuel_abs="117093.95" electricity_abs="0.00"/>
    </tripinfo>
    <tripinfo id="23" depart="46.00" departLane="-E16_0" departPos="5.10" departSpeed="0.00" departDelay="0.00" arrival="160.00" arrivalLane="-E29_0" arrivalPos="266.06" arrivalSpeed="14.24" duration="114.00" routeLength="1384.98" waitingTime="1.00" waitingCount="1" stopTime="0.00" timeLoss="18.15" rerouteNo="0" devices="tripinfo_23 emissions_23" vType="Car" speedFactor="1.07" vaporized="">
        <emissions CO_abs="1781.56" CO2_abs="297061.40" HC_abs="11.93" PMx_abs="32.22" NOx_abs="103.39" fuel_abs="96303.32" electricity_abs="0.00"/>
    </tripinfo>
    <tripinfo id="48" depart="96.00" departLane="E9_0" departPos="5.10" departSpeed="0.00" departDelay="0.00" arrival="161.00" arrivalLane="E10_0" arrivalPos="479.20" arrivalSpeed="13.76" duration="65.00" routeLength="772.65" waitingTime="0.00" waitingCount="0" stopTime="0.00" timeLoss="8.20" rerouteNo="0" devices="tripinfo_48 emissions_48" vType="Car" speedFactor="1.00" vaporized="">
        <emissions CO_abs="936.58" CO2_abs="166711.66" HC_abs="6.25" PMx_abs="17.15" NOx_abs="57.02" fuel_abs="54045.62" electricity_abs="0.00"/>
    </tripinfo>
    <tripinfo id="flow_z1.2" depart="2.00" departLane="-E1_0" departPos="5.10" departSpeed="7.75" departDelay="0.33" arrival="165.00" arrivalLane="E19_0" arrivalPos="283.20" arrivalSpeed="15.53" duration="163.00" routeLength="2181.19" waitingTime="0.00" waitingCount="0" stopTime="0.00" timeLoss="24.71" rerouteNo="0" devices="tripinfo_flow_z1.2 emissions_flow_z1.2" vType="Car" speedFactor="1.14" vaporized="">
        <emissions CO_abs="2745.60" CO2_abs="397181.43" HC_abs="18.37" PMx_abs="45.72" NOx_abs="142.08" fuel_abs="128761.04" electricity_abs="0.00"/>
    </tripinfo>
    <tripinfo id="flow_z1.0" depart="0.00" departLane="-E1_0" departPos="5.10" departSpeed="13.81" departDelay="0.00" arrival="169.00" arrivalLane="E19_0" arrivalPos="283.20" arrivalSpeed="12.93" duration="169.00" routeLength="2181.19" waitingTime="0.00" waitingCount="0" stopTime="0.00" timeLoss="9.53" rerouteNo="0" devices="tripinfo_flow_z1.0 emissions_flow_z1.0" vType="Car" speedFactor="0.99" vaporized="">
        <emissions CO_abs="2116.64" CO2_abs="348028.39" HC_abs="14.19" PMx_abs="43.64" NOx_abs="124.82" fuel_abs="112826.63" electricity_abs="0.00"/>
    </tripinfo>
    <tripinfo id="flow_z3.8" depart="15.00" departLane="-E28_1" departPos="5.10" departSpeed="0.86" departDelay="8.34" arrival="172.00" arrivalLane="-E29_0" arrivalPos="266.06" arrivalSpeed="14.41" duration="157.00" routeLength="1186.43" waitingTime="56.00" waitingCount="2" stopTime="0.00" timeLoss="75.43" rerouteNo="0" devices="tripinfo_flow_z3.8 emissions_flow_z3.8" vType="Car" speedFactor="1.07" vaporized="">
        <emissions CO_abs="1585.67" CO2_abs="354779.73" HC_abs="10.60" PMx_abs="27.98" NOx_abs="126.76" fuel_abs="115015.41" electricity_abs="0.00"/>
    </tripinfo>
    <tripinfo id="flow_z1.3" depart="4.00" departLane="-E1_0" departPos="5.10" departSpeed="8.02" departDelay="1.50" arrival="174.00" arrivalLane="E19_0" arrivalPos="283.20" arrivalSpeed="13.37" duration="170.00" routeLength="2181.19" waitingTime="0.00" waitingCount="0" stopTime="0.00" timeLoss="15.98" rerouteNo="0" devices="tripinfo_flow_z1.3 emissions_flow_z1.3" vType="Car" speedFactor="1.03" vaporized="">
        <emissions CO_abs="2342.37" CO2_abs="378372.61" HC_abs="15.69" PMx_abs="45.60" NOx_abs="135.21" fuel_abs="122663.75" electricity_abs="0.00"/>
    </tripinfo>
    <tripinfo id="flow_z1.1" depart="1.00" departLane="-E1_0" departPos="5.10" departSpeed="10.93" departDelay="0.17" arrival="177.00" arrivalLane="E19_0" arrivalPos="283.20" arrivalSpeed="12.67" duration="176.00" routeLength="2181.19" waitingTime="0.00" waitingCount="0" stopTime="0.00" timeLoss="10.32" rerouteNo="0" devices="tripinfo_flow_z1.1 emissions_flow_z1.1" vType="Car" speedFactor="0.96" vaporized="">
        <emissions CO_abs="1915.30" CO2_abs="350481.12" HC_abs="12.86" PMx_abs="44.95" NOx_abs="125.47" fuel_abs="113621.97" electricity_abs="0.00"/>
    </tripinfo>
    <tripinfo id="16" depart="32.00" departLane="E10_0" departPos="5.10" departSpeed="0.00" departDelay="0.00" arrival="177.00" arrivalLane="E7_0" arrivalPos="466.06" arrivalSpeed="13.97" duration="145.00" routeLength="1801.77" waitingTime="2.00" waitingCount="1" stopTime="0.00" timeLoss="18.50" rerouteNo="0" devices="tripinfo_16 emissions_16" vType="Car" speedFactor="1.05" vaporized="">
        <emissions CO_abs="2321.86" CO2_abs="370212.07" HC_abs="15.52" PMx_abs="39.19" NOx_abs="129.10" fuel_abs="120017.73" electricity_abs="0.00"/>
    </tripinfo>
    <tripinfo id="flow_z1.4" depart="6.00" departLane="-E1_0" departPos="5.10" departSpeed="9.40" departDelay="2.67" arrival="178.00" arrivalLane="E19_1" arrivalPos="283.20" arrivalSpeed="12.69" duration="172.00" routeLength="2181.19" waitingTime="0.00" waitingCount="0" stopTime="0.00" timeLoss="14.70" rerouteNo="0" devices="tripinfo_flow_z1.4 emissions_flow_z1.4" vType="Car" speedFactor="1.00" vaporized="">
        <emissions CO_abs="2376.43" CO2_abs="382706.97" HC_abs="15.90" PMx_abs="45.22" NOx_abs="136.66" fuel_abs="124068.86" electricity_abs="0.00"/>
    </tripinfo>
    <tripinfo id="36" depart="72.00" departLane="E36_0" departPos="5.10" departSpeed="0.00" departDelay="0.00" arrival="179.00" arrivalLane="-E31_0" arrivalPos="279.20" arrivalSpeed="17.51" duration="107.00" routeLength="1568.07" waitingTime="0.00" waitingCount="0" stopTime="0.00" timeLoss="15.74" rerouteNo="0" devices="tripinfo_36 emissions_36" vType="Car" speedFactor="1.27" vaporized="">
        <emissions CO_abs="3032.62" CO2_abs="368342.71" HC_abs="20.28" PMx_abs="39.50" NOx_abs="132.29" fuel_abs="119411.33" electricity_abs="0.00"/>
    </tripinfo>
    <tripinfo id="49" depart="98.00" departLane="E7_0" departPos="5.10" departSpeed="0.00" departDelay="0.00" arrival="179.00" arrivalLane="E34_0" arrivalPos="266.06" arrivalSpeed="14.93" duration="81.00" routeLength="1101.24" waitingTime="0.00" waitingCount="0" stopTime="0.00" timeLoss="8.97" rerouteNo="0" devices="tripinfo_49 emissions_49" vType="Car" speedFactor="1.13" vaporized="">
        <emissions CO_abs="1452.15" CO2_abs="215328.64" HC_abs="9.73" PMx_abs="25.38" NOx_abs="76.44" fuel_abs="69806.67" electricity_abs="0.00"/>
    </tripinfo>
    <tripinfo id="flow_z3.9" depart="19.00" departLane="-E28_1" departPos="5.10" departSpeed="5.82" departDelay="11.50" arrival="182.00" arrivalLane="-E29_1" arrivalPos="266.06" arrivalSpeed="16.43" duration="163.00" routeLength="1186.43" waitingTime="55.00" waitingCount="2" stopTime="0.00" timeLoss="90.69" rerouteNo="0" devices="tripinfo_flow_z3.9 emissions_flow_z3.9" vType="Car" speedFactor="1.21" vaporized="">
        <emissions CO_abs="1516.98" CO2_abs="349740.29" HC_abs="10.13" PMx_abs="26.99" NOx_abs="125.70" fuel_abs="113381.79" electricity_abs="0.00"/>
    </tripinfo>
    <tripinfo id="flow_z3.7" depart="13.00" departLane="-E28_1" departPos="5.10" departSpeed="3.08" departDelay="7.17" arrival="186.00" arrivalLane="-E29_0" arrivalPos="266.06" arrivalSpeed="11.26" duration="173.00" routeLength="1186.43" waitingTime="61.00" waitingCount="1" stopTime="0.00" timeLoss="75.81" rerouteNo="0" devices="tripinfo_flow_z3.7 emissions_flow_z3.7" vType="Car" speedFactor="0.90" vaporized="">
        <emissions CO_abs="1172.93" CO2_abs="333909.55" HC_abs="7.82" PMx_abs="23.87" NOx_abs="119.52" fuel_abs="108249.86" electricity_abs="0.00"/>
    </tripinfo>
    <tripinfo id="flow_z2.1" depart="1.00" departLane="-E18_0" departPos="5.10" departSpeed="9.58" departDelay="0.17" arrival="191.00" arrivalLane="-E15_0" arrivalPos="479.20" arrivalSpeed="13.99" duration="190.00" routeLength="1988.38" waitingTime="36.00" waitingCount="1" stopTime="0.00" timeLoss="53.51" rerouteNo="0" devices="tripinfo_flow_z2.1 emissions_flow_z2.1" vType="Car" speedFactor="1.06" vaporized="">
        <emissions CO_abs="2463.82" CO2_abs="438062.47" HC_abs="16.49" PMx_abs="43.63" NOx_abs="157.35" fuel_abs="142014.56" electricity_abs="0.00"/>
    </tripinfo>
    <tripinfo id="flow_z3.13" depart="27.00" departLane="-E28_1" departPos="5.10" departSpeed="6.97" departDelay="16.17" arrival="191.00" arrivalLane="-E29_0" arrivalPos="266.06" arrivalSpeed="12.41" duration="164.00" routeLength="1186.43" waitingTime="50.00" waitingCount="1" stopTime="0.00" timeLoss="66.49" rerouteNo="0" devices="tripinfo_flow_z3.13 emissions_flow_z3.13" vType="Car" speedFactor="0.90" vaporized="">
        <emissions CO_abs="1204.79" CO2_abs="320820.55" HC_abs="8.03" PMx_abs="23.76" NOx_abs="114.48" fuel_abs="104006.39" electricity_abs="0.00"/>
    </tripinfo>
    <tripinfo id="18" depart="36.00" departLane="E32_0" departPos="5.10" departSpeed="0.00" departDelay="0.00" arrival="193.00" arrivalLane="E17_0" arrivalPos="465.43" arrivalSpeed="12.23" duration="157.00" routeLength="1839.24" waitingTime="0.00" waitingCount="0" stopTime="0.00" timeLoss="16.48" rerouteNo="0" devices="tripinfo_18 emissions_18" vType="Car" speedFactor="0.96" vaporized="">
        <emissions CO_abs="2117.22" CO2_abs="386219.32" HC_abs="14.15" PMx_abs="41.54" NOx_abs="133.16" fuel_abs="125207.26" electricity_abs="0.00"/>
    </tripinfo>
    <tripinfo id="flow_z2.0" depart="0.00" departLane="-E18_0" departPos="5.10" departSpeed="12.79" departDelay="0.00" arrival="196.00" arrivalLane="-E15_0" arrivalPos="479.20" arrivalSpeed="11.87" duration="196.00" routeLength="1988.38" waitingTime="21.00" waitingCount="1" stopTime="0.00" timeLoss="38.90" rerouteNo="0" devices="tripinfo_flow_z2.0 emissions_flow_z2.0" vType="Car" speedFactor="0.92" vaporized="">
        <emissions CO_abs="1920.49" CO2_abs="403101.68" HC_abs="12.84" PMx_abs="40.35" NOx_abs="142.01" fuel_abs="130680.70" electricity_abs="0.00"/>
    </tripinfo>
    <tripinfo id="flow_z2.4" depart="6.00" departLane="-E18_0" departPos="5.10" departSpeed="5.64" departDelay="2.67" arrival="197.00" arrivalLane="-E15_1" arrivalPos="479.20" arrivalSpeed="11.38" duration="191.00" routeLength="1988.38" waitingTime="1.00" waitingCount="1" stopTime="0.00" timeLoss="53.65" rerouteNo="0" devices="tripinfo_flow_z2.4 emissions_flow_z2.4" vType="Car" speedFactor="1.05" vaporized="">
        <emissions CO_abs="2444.78" CO2_abs="454776.13" HC_abs="16.30" PMx_abs="42.54" NOx_abs="155.15" fuel_abs="147432.15" electricity_abs="0.00"/>
    </tripinfo>
    <tripinfo id="54" depart="108.00" departLane="-E6_0" departPos="5.10" departSpeed="0.00" departDelay="0.00" arrival="198.00" arrivalLane="E6_1" arrivalPos="466.06" arrivalSpeed="8.81" duration="90.00" routeLength="1043.03" waitingTime="0.00" waitingCount="0" stopTime="0.00" timeLoss="11.49" rerouteNo="0" devices="tripinfo_54 emissions_54" vType="Car" speedFactor="0.98" vaporized="">
        <emissions CO_abs="1124.53" CO2_abs="204560.55" HC_abs="7.50" PMx_abs="20.48" NOx_abs="69.77" fuel_abs="66315.74" electricity_abs="0.00"/>
    </tripinfo>
    <tripinfo id="flow_z2.5" depart="8.00" departLane="-E18_0" departPos="5.10" departSpeed="5.48" departDelay="3.84" arrival="199.00" arrivalLane="-E15_1" arrivalPos="479.20" arrivalSpeed="13.46" duration="191.00" routeLength="1984.04" waitingTime="4.00" waitingCount="1" stopTime="0.00" timeLoss="54.41" rerouteNo="0" devices="tripinfo_flow_z2.5 emissions_flow_z2.5" vType="Car" speedFactor="1.06" vaporized="">
        <emissions CO_abs="2404.15" CO2_abs="439595.27" HC_abs="16.02" PMx_abs="41.07" NOx_abs="151.65" fuel_abs="142510.82" electricity_abs="0.00"/>
    </tripinfo>
    <tripinfo id="flow_z2.2" depart="2.00" departLane="-E18_0" departPos="5.10" departSpeed="5.27" departDelay="0.33" arrival="200.00" arrivalLane="-E15_1" arrivalPos="479.20" arrivalSpeed="11.42" duration="198.00" routeLength="1988.38" waitingTime="4.00" waitingCount="2" stopTime="0.00" timeLoss="54.55" rerouteNo="0" devices="tripinfo_flow_z2.2 emissions_flow_z2.2" vType="Car" speedFactor="1.01" vaporized="">
        <emissions CO_abs="2175.66" CO2_abs="438216.77" HC_abs="14.49" PMx_abs="40.96" NOx_abs="150.77" fuel_abs="142064.00" electricity_abs="0.00"/>
    </tripinfo>
    <tripinfo id="flow_z2.6" depart="10.00" departLane="-E18_0" departPos="5.10" departSpeed="6.09" departDelay="5.00" arrival="202.00" arrivalLane="-E15_0" arrivalPos="479.20" arrivalSpeed="13.02" duration="192.00" routeLength="1988.38" waitingTime="0.00" waitingCount="0" stopTime="0.00" timeLoss="43.03" rerouteNo="0" devices="tripinfo_flow_z2.6 emissions_flow_z2.6" vType="Car" speedFactor="0.97" vaporized="">
        <emissions CO_abs="1970.40" CO2_abs="415312.75" HC_abs="13.16" PMx_abs="42.52" NOx_abs="141.40" fuel_abs="134639.01" electricity_abs="0.00"/>
    </tripinfo>
    <tripinfo id="3" depart="6.00" departLane="E37_0" departPos="5.10" departSpeed="0.00" departDelay="0.00" arrival="203.00" arrivalLane="-E14_1" arrivalPos="279.20" arrivalSpeed="14.11" duration="197.00" routeLength="1837.99" waitingTime="47.00" waitingCount="1" stopTime="0.00" timeLoss="68.32" rerouteNo="0" devices="tripinfo_3 emissions_3" vType="Car" speedFactor="1.06" vaporized="">
        <emissions CO_abs="2456.17" CO2_abs="467694.41" HC_abs="16.41" PMx_abs="41.68" NOx_abs="166.86" fuel_abs="151620.80" electricity_abs="0.00"/>
    </tripinfo>
    <tripinfo id="flow_z2.8" depart="14.00" departLane="-E18_0" departPos="5.10" departSpeed="5.60" departDelay="7.34" arrival="203.00" arrivalLane="-E15_1" arrivalPos="479.20" arrivalSpeed="13.66" duration="189.00" routeLength="1984.04" waitingTime="0.00" waitingCount="0" stopTime="0.00" timeLoss="45.28" rerouteNo="0" devices="tripinfo_flow_z2.8 emissions_flow_z2.8" vType="Car" speedFactor="1.01" vaporized="">
        <emissions CO_abs="2054.64" CO2_abs="399482.49" HC_abs="13.71" PMx_abs="39.92" NOx_abs="137.33" fuel_abs="129507.00" electricity_abs="0.00"/>
    </tripinfo>
    <tripinfo id="flow_z2.9" depart="16.00" departLane="-E18_0" departPos="5.10" departSpeed="3.89" departDelay="8.50" arrival="204.00" arrivalLane="-E15_0" arrivalPos="479.20" arrivalSpeed="13.89" duration="188.00" routeLength="1984.04" waitingTime="0.00" waitingCount="0" stopTime="0.00" timeLoss="53.14" rerouteNo="0" devices="tripinfo_flow_z2.9 emissions_flow_z2.9" vType="Car" speedFactor="1.08" vaporized="">
        <emissions CO_abs="2454.01" CO2_abs="425277.63" HC_abs="16.32" PMx_abs="37.88" NOx_abs="145.50" fuel_abs="137869.07" electricity_abs="0.00"/>
    </tripinfo>
    <tripinfo id="flow_z2.12" depart="23.00" departLane="-E18_0" departPos="5.10" departSpeed="2.51" departDelay="13.00" arrival="204.00" arrivalLane="-E15_1" arrivalPos="479.20" arrivalSpeed="15.51" duration="181.00" routeLength="1984.04" waitingTime="7.00" waitingCount="2" stopTime="0.00" timeLoss="62.32" rerouteNo="0" devices="tripinfo_flow_z2.12 emissions_flow_z2.12" vType="Car" speedFactor="1.22" vaporized="">
        <emissions CO_abs="2568.26" CO2_abs="422264.55" HC_abs="17.15" PMx_abs="40.01" NOx_abs="146.82" fuel_abs="136892.27" electricity_abs="0.00"/>
    </tripinfo>
    <tripinfo id="flow_z3.11" depart="23.00" departLane="-E28_1" departPos="5.10" departSpeed="5.86" departDelay="13.84" arrival="209.00" arrivalLane="-E29_0" arrivalPos="266.06" arrivalSpeed="8.33" duration="186.00" routeLength="1186.43" waitingTime="49.00" waitingCount="1" stopTime="0.00" timeLoss="103.59" rerouteNo="0" devices="tripinfo_flow_z3.11 emissions_flow_z3.11" vType="Car" speedFactor="1.06" vaporized="">
        <emissions CO_abs="974.76" CO2_abs="356654.06" HC_abs="6.51" PMx_abs="28.08" NOx_abs="128.29" fuel_abs="115623.59" electricity_abs="0.00"/>
    </tripinfo>
    <tripinfo id="flow_z3.14" depart="29.00" departLane="-E28_1" departPos="5.10" departSpeed="8.13" departDelay="17.34" arrival="211.00" arrivalLane="-E29_0" arrivalPos="266.06" arrivalSpeed="12.49" duration="182.00" routeLength="1186.43" waitingTime="43.00" waitingCount="1" stopTime="0.00" timeLoss="87.75" rerouteNo="0" devices="tripinfo_flow_z3.14 emissions_flow_z3.14" vType="Car" speedFactor="0.93" vaporized="">
        <emissions CO_abs="1376.66" CO2_abs="362846.11" HC_abs="9.12" PMx_abs="22.70" NOx_abs="124.77" fuel_abs="117630.12" electricity_abs="0.00"/>
    </tripinfo>
    <tripinfo id="flow_z3.17" depart="35.00" departLane="-E28_1" departPos="5.10" departSpeed="2.58" departDelay="20.84" arrival="212.00" arrivalLane="-E29_1" arrivalPos="266.06" arrivalSpeed="8.33" duration="177.00" routeLength="1186.43" waitingTime="41.00" waitingCount="1" stopTime="0.00" timeLoss="85.34" rerouteNo="0" devices="tripinfo_flow_z3.17 emissions_flow_z3.17" vType="Car" speedFactor="0.96" vaporized="">
        <emissions CO_abs="910.76" CO2_abs="351139.72" HC_abs="6.09" PMx_abs="29.77" NOx_abs="125.80" fuel_abs="113835.88" electricity_abs="0.00"/>
    </tripinfo>
    <tripinfo id="flow_z3.10" depart="21.00" departLane="-E28_1" departPos="5.10" departSpeed="6.01" departDelay="12.67" arrival="213.00" arrivalLane="-E29_0" arrivalPos="266.06" arrivalSpeed="12.62" duration="192.00" routeLength="1186.43" waitingTime="54.00" waitingCount="1" stopTime="0.00" timeLoss="106.18" rerouteNo="0" devices="tripinfo_flow_z3.10 emissions_flow_z3.10" vType="Car" speedFactor="1.02" vaporized="">
        <emissions CO_abs="1476.64" CO2_abs="400546.35" HC_abs="9.79" PMx_abs="24.79" NOx_abs="139.27" fuel_abs="129852.26" electricity_abs="0.00"/>
    </tripinfo>
    <tripinfo id="flow_z3.12" depart="25.00" departLane="-E28_1" departPos="5.10" departSpeed="5.78" departDelay="15.00" arrival="213.00" arrivalLane="-E29_1" arrivalPos="266.06" arrivalSpeed="11.26" duration="188.00" routeLength="1186.43" waitingTime="50.00" waitingCount="1" stopTime="0.00" timeLoss="96.22" rerouteNo="0" devices="tripinfo_flow_z3.12 emissions_flow_z3.12" vType="Car" speedFactor="0.94" vaporized="">
        <emissions CO_abs="1356.91" CO2_abs="385962.79" HC_abs="9.00" PMx_abs="24.45" NOx_abs="132.21" fuel_abs="125124.32" electricity_abs="0.00"/>
    </tripinfo>
    <tripinfo id="68" depart="136.00" departLane="-E13_0" departPos="5.10" departSpeed="0.00" departDelay="0.00" arrival="214.00" arrivalLane="E27_1" arrivalPos="279.20" arrivalSpeed="14.34" duration="78.00" routeLength="772.65" waitingTime="11.00" waitingCount="1" stopTime="0.00" timeLoss="23.68" rerouteNo="0" devices="tripinfo_68 emissions_68" vType="Car" speedFactor="1.05" vaporized="">
        <emissions CO_abs="1068.28" CO2_abs="197691.77" HC_abs="7.14" PMx_abs="17.47" NOx_abs="68.96" fuel_abs="64088.97" electricity_abs="0.00"/>
    </tripinfo>
    <tripinfo id="41" depart="82.00" departLane="E14_0" departPos="5.10" departSpeed="0.00" departDelay="0.00" arrival="215.00" arrivalLane="E37_0" arrivalPos="266.06" arrivalSpeed="12.99" duration="133.00" routeLength="1537.42" waitingTime="2.00" waitingCount="1" stopTime="0.00" timeLoss="23.12" rerouteNo="0" devices="tripinfo_41 emissions_41" vType="Car" speedFactor="1.03" vaporized="">
        <emissions CO_abs="1921.90" CO2_abs="331993.53" HC_abs="12.84" PMx_abs="33.60" NOx_abs="113.98" fuel_abs="107627.70" electricity_abs="0.00"/>
    </tripinfo>
    <tripinfo id="flow_z3.23" depart="48.00" departLane="-E28_1" departPos="5.10" departSpeed="5.07" departDelay="28.84" arrival="215.00" arrivalLane="-E29_1" arrivalPos="266.06" arrivalSpeed="13.75" duration="167.00" routeLength="1186.43" waitingTime="32.00" waitingCount="1" stopTime="0.00" timeLoss="82.09" rerouteNo="0" devices="tripinfo_flow_z3.23 emissions_flow_z3.23" vType="Car" speedFactor="1.03" vaporized="">
        <emissions CO_abs="1663.14" CO2_abs="371746.38" HC_abs="11.02" PMx_abs="23.90" NOx_abs="126.40" fuel_abs="120515.15" electricity_abs="0.00"/>
    </tripinfo>
    <tripinfo id="flow_z2.16" depart="31.00" departLane="-E18_0" departPos="5.10" departSpeed="5.62" departDelay="17.67" arrival="217.00" arrivalLane="-E15_1" arrivalPos="479.20" arrivalSpeed="15.22" duration="186.00" routeLength="1984.04" waitingTime="1.00" waitingCount="1" stopTime="0.00" timeLoss="61.70" rerouteNo="0" devices="tripinfo_flow_z2.16 emissions_flow_z2.16" vType="Car" speedFactor="1.17" vaporized="">
        <emissions CO_abs="2475.49" CO2_abs="436072.62" HC_abs="16.53" PMx_abs="43.16" NOx_abs="151.71" fuel_abs="141368.88" electricity_abs="0.00"/>
    </tripinfo>
    <tripinfo id="flow_z2.10" depart="18.00" departLane="-E18_0" departPos="5.10" departSpeed="2.16" departDelay="9.67" arrival="218.00" arrivalLane="-E15_0" arrivalPos="479.20" arrivalSpeed="12.80" duration="200.00" routeLength="1988.38" waitingTime="5.00" waitingCount="2" stopTime="0.00" timeLoss="50.32" rerouteNo="0" devices="tripinfo_flow_z2.10 emissions_flow_z2.10" vType="Car" speedFactor="0.97" vaporized="">
        <emissions CO_abs="1980.09" CO2_abs="419854.39" HC_abs="13.21" PMx_abs="39.71" NOx_abs="143.45" fuel_abs="136111.12" electricity_abs="0.00"/>
    </tripinfo>