<?xml version="1.0" encoding="UTF-8"?>
<tripinfos>
    <tripinfos>
    <tripinfo id="13" depart="26.00" departLane="-E15_0" departPos="5.10" departSpeed="0.00" departDelay="0.00" arrival="71.00" arrivalLane="-E15_0" arrivalPos="479.20" arrivalSpeed="12.05" duration="45.00" routeLength="474.10" waitingTime="0.00" waitingCount="0" stopTime="0.00" timeLoss="5.21" rerouteNo="0" devices="tripinfo_13 emissions_13" vType="Car" speedFactor="0.88" vaporized="">
    <emissions CO_abs="446.73" CO2_abs="101489.74" HC_abs="2.98" PMx_abs="10.43" NOx_abs="34.31" fuel_abs="32901.64" electricity_abs="0.00"/>
    </tripinfo>
    <tripinfo id="flow_z3.1" depart="3.00" departLane="-E28_1" departPos="5.10" departSpeed="16.11" departDelay="0.00" arrival="85.00" arrivalLane="-E29_0" arrivalPos="266.06" arrivalSpeed="15.71" duration="82.00" routeLength="1186.43" waitingTime="0.00" waitingCount="0" stopTime="0.00" timeLoss="6.42" rerouteNo="0" devices="tripinfo_flow_z3.1 emissions_flow_z3.1" vType="Car" speedFactor="1.16" vaporized="">
    <emissions CO_abs="1568.29" CO2_abs="205503.14" HC_abs="10.52" PMx_abs="25.41" NOx_abs="74.65" fuel_abs="66621.43" electricity_abs="0.00"/>
    </tripinfo>
    <tripinfo id="22" depart="44.00" departLane="-E14_0" departPos="5.10" departSpeed="0.00" departDelay="0.00" arrival="98.00" arrivalLane="-E25_0" arrivalPos="279.20" arrivalSpeed="10.71" duration="54.00" routeLength="574.10" waitingTime="0.00" waitingCount="0" stopTime="0.00" timeLoss="5.58" rerouteNo="0" devices="tripinfo_22 emissions_22" vType="Car" speedFactor="0.85" vaporized="">
    <emissions CO_abs="450.29" CO2_abs="110333.76" HC_abs="3.01" PMx_abs="11.75" NOx_abs="37.47" fuel_abs="35768.80" electricity_abs="0.00"/>
    </tripinfo>
    <tripinfo id="flow_z3.0" depart="0.00" departLane="-E28_1" departPos="5.10" departSpeed="12.68" departDelay="0.00" arrival="104.00" arrivalLane="-E29_0" arrivalPos="266.06" arrivalSpeed="12.66" duration="104.00" routeLength="1186.43" waitingTime="0.00" waitingCount="0" stopTime="0.00" timeLoss="8.13" rerouteNo="0" devices="tripinfo_flow_z3.0 emissions_flow_z3.0" vType="Car" speedFactor="0.91" vaporized="">
    <emissions CO_abs="916.94" CO2_abs="202312.64" HC_abs="6.17" PMx_abs="25.86" NOx_abs="71.70" fuel_abs="65587.54" electricity_abs="0.00"/>
    </tripinfo>
    <tripinfo id="flow_z3.2" depart="6.00" departLane="-E28_1" departPos="5.10" departSpeed="13.74" departDelay="0.00" arrival="104.00" arrivalLane="-E29_1" arrivalPos="266.06" arrivalSpeed="13.57" duration="98.00" routeLength="1186.43" waitingTime="0.00" waitingCount="0" stopTime="0.00" timeLoss="9.62" rerouteNo="0" devices="tripinfo_flow_z3.2 emissions_flow_z3.2" vType="Car" speedFactor="0.99" vaporized="">
    <emissions CO_abs="1191.65" CO2_abs="210506.49" HC_abs="7.98" PMx_abs="25.19" NOx_abs="74.35" fuel_abs="68243.64" electricity_abs="0.00"/>
    </tripinfo>
    <tripinfo id="flow_z3.3" depart="9.00" departLane="-E28_1" departPos="5.10" departSpeed="13.81" departDelay="0.00" arrival="107.00" arrivalLane="-E29_0" arrivalPos="266.06" arrivalSpeed="12.83" duration="98.00" routeLength="1186.43" waitingTime="0.00" waitingCount="0" stopTime="0.00" timeLoss="10.30" rerouteNo="0" devices="tripinfo_flow_z3.3 emissions_flow_z3.3" vType="Car" speedFactor="0.99" vaporized="">
    <emissions CO_abs="1111.92" CO2_abs="203945.44" HC_abs="7.46" PMx_abs="26.04" NOx_abs="72.70" fuel_abs="66116.75" electricity_abs="0.00"/>
    </tripinfo>
    <tripinfo id="flow_z3.4" depart="12.00" departLane="-E28_1" departPos="5.10" departSpeed="13.99" departDelay="0.00" arrival="109.00" arrivalLane="-E29_0" arrivalPos="266.06" arrivalSpeed="13.60" duration="97.00" routeLength="1186.43" waitingTime="0.00" waitingCount="0" stopTime="0.00" timeLoss="9.77" rerouteNo="0" devices="tripinfo_flow_z3.4 emissions_flow_z3.4" vType="Car" speedFactor="1.01" vaporized="">
    <emissions CO_abs="1226.90" CO2_abs="206317.47" HC_abs="8.21" PMx_abs="24.50" NOx_abs="73.21" fuel_abs="66885.58" electricity_abs="0.00"/>
    </tripinfo>
    <tripinfo id="flow_z3.5" depart="15.00" departLane="-E28_1" departPos="5.10" departSpeed="14.75" departDelay="0.00" arrival="110.00" arrivalLane="-E29_1" arrivalPos="266.06" arrivalSpeed="14.32" duration="95.00" routeLength="1186.43" waitingTime="0.00" waitingCount="0" stopTime="0.00" timeLoss="12.47" rerouteNo="0" devices="tripinfo_flow_z3.5 emissions_flow_z3.5" vType="Car" speedFactor="1.06" vaporized="">
    <emissions CO_abs="1317.48" CO2_abs="213308.65" HC_abs="8.83" PMx_abs="25.84" NOx_abs="75.86" fuel_abs="69152.01" electricity_abs="0.00"/>
    </tripinfo>
    <tripinfo id="12" depart="24.00" departLane="E6_0" departPos="5.10" departSpeed="0.00" departDelay="0.00" arrival="128.00" arrivalLane="-E32_0" arrivalPos="266.06" arrivalSpeed="13.17" duration="104.00" routeLength="1239.52" waitingTime="0.00" waitingCount="0" stopTime="0.00" timeLoss="9.99" rerouteNo="0" devices="tripinfo_12 emissions_12" vType="Car" speedFactor="0.97" vaporized="">
    <emissions CO_abs="1228.89" CO2_abs="234661.14" HC_abs="8.23" PMx_abs="27.39" NOx_abs="81.95" fuel_abs="76074.22" electricity_abs="0.00"/>
    </tripinfo>
    <tripinfo id="21" depart="42.00" departLane="-E25_0" departPos="5.10" departSpeed="0.00" departDelay="0.00" arrival="131.00" arrivalLane="-E3_0" arrivalPos="483.20" arrivalSpeed="13.35" duration="89.00" routeLength="1079.36" waitingTime="0.00" waitingCount="0" stopTime="0.00" timeLoss="7.74" rerouteNo="0" devices="tripinfo_21 emissions_21" vType="Car" speedFactor="0.96" vaporized="">
    <emissions CO_abs="1059.81" CO2_abs="195929.11" HC_abs="7.09" PMx_abs="22.28" NOx_abs="68.15" fuel_abs="63517.72" electricity_abs="0.00"/>
    </tripinfo>
    <tripinfo id="30" depart="60.00" departLane="E9_0" departPos="5.10" departSpeed="0.00" departDelay="0.00" arrival="134.00" arrivalLane="E19_0" arrivalPos="283.20" arrivalSpeed="15.46" duration="74.00" routeLength="878.10" waitingTime="4.00" waitingCount="1" stopTime="0.00" timeLoss="17.40" rerouteNo="0" devices="tripinfo_30 emissions_30" vType="Car" speedFactor="1.13" vaporized="">
    <emissions CO_abs="1360.98" CO2_abs="209692.14" HC_abs="9.09" PMx_abs="20.50" NOx_abs="72.99" fuel_abs="67979.19" electricity_abs="0.00"/>
    </tripinfo>
    <tripinfo id="4" depart="8.00" departLane="-E39_0" departPos="5.10" departSpeed="0.00" departDelay="0.00" arrival="147.00" arrivalLane="-E10_0" arrivalPos="479.20" arrivalSpeed="11.75" duration="139.00" routeLength="1552.66" waitingTime="0.00" waitingCount="0" stopTime="0.00" timeLoss="13.23" rerouteNo="0" devices="tripinfo_4 emissions_4" vType="Car" speedFactor="0.90" vaporized="">
    <emissions CO_abs="1451.65" CO2_abs="296485.55" HC_abs="9.70" PMx_abs="32.36" NOx_abs="102.37" fuel_abs="96116.91" electricity_abs="0.00"/>
    </tripinfo>
    <tripinfo id="1" depart="2.00" departLane="-E29_0" departPos="5.10" departSpeed="0.00" departDelay="0.00" arrival="154.00" arrivalLane="-E24_0" arrivalPos="283.20" arrivalSpeed="14.11" duration="152.00" routeLength="1942.97" waitingTime="0.00" waitingCount="0" stopTime="0.00" timeLoss="15.66" rerouteNo="0" devices="tripinfo_1 emissions_1" vType="Car" speedFactor="1.04" vaporized="">
    <emissions CO_abs="2233.55" CO2_abs="364785.82" HC_abs="14.96" PMx_abs="42.28" NOx_abs="128.23" fuel_abs="118258.82" electricity_abs="0.00"/>
    </tripinfo>
    <tripinfo id="48" depart="96.00" departLane="E9_0" departPos="5.10" departSpeed="0.00" departDelay="0.00" arrival="158.00" arrivalLane="E10_0" arrivalPos="479.20" arrivalSpeed="13.18" duration="62.00" routeLength="772.65" waitingTime="0.00" waitingCount="0" stopTime="0.00" timeLoss="7.25" rerouteNo="0" devices="tripinfo_48 emissions_48" vType="Car" speedFactor="1.03" vaporized="">
    <emissions CO_abs="1027.41" CO2_abs="164134.07" HC_abs="6.85" PMx_abs="16.09" NOx_abs="56.18" fuel_abs="53209.90" electricity_abs="0.00"/>
    </tripinfo>
    <tripinfo id="23" depart="46.00" departLane="-E16_0" departPos="5.10" departSpeed="0.00" departDelay="0.00" arrival="162.00" arrivalLane="-E29_0" arrivalPos="266.06" arrivalSpeed="14.04" duration="116.00" routeLength="1384.98" waitingTime="1.00" waitingCount="1" stopTime="0.00" timeLoss="17.91" rerouteNo="0" devices="tripinfo_23 emissions_23" vType="Car" speedFactor="1.05" vaporized="">
    <emissions CO_abs="1824.11" CO2_abs="304525.92" HC_abs="12.19" PMx_abs="31.83" NOx_abs="105.71" fuel_abs="98723.20" electricity_abs="0.00"/>
    </tripinfo>
    <tripinfo id="flow_z1.2" depart="6.00" departLane="-E1_0" departPos="5.10" departSpeed="15.85" departDelay="0.00" arrival="166.00" arrivalLane="E19_1" arrivalPos="283.20" arrivalSpeed="14.88" duration="160.00" routeLength="2181.19" waitingTime="0.00" waitingCount="0" stopTime="0.00" timeLoss="21.68" rerouteNo="0" devices="tripinfo_flow_z1.2 emissions_flow_z1.2" vType="Car" speedFactor="1.14" vaporized="">
    <emissions CO_abs="2336.50" CO2_abs="352203.83" HC_abs="15.69" PMx_abs="45.75" NOx_abs="127.71" fuel_abs="114180.20" electricity_abs="0.00"/>
    </tripinfo>
    <tripinfo id="flow_z1.0" depart="0.00" departLane="-E1_0" departPos="5.10" departSpeed="13.81" departDelay="0.00" arrival="168.00" arrivalLane="E19_0" arrivalPos="283.20" arrivalSpeed="13.56" duration="168.00" routeLength="2181.19" waitingTime="0.00" waitingCount="0" stopTime="0.00" timeLoss="9.04" rerouteNo="0" devices="tripinfo_flow_z1.0 emissions_flow_z1.0" vType="Car" speedFactor="0.99" vaporized="">
    <emissions CO_abs="1926.53" CO2_abs="338978.25" HC_abs="12.97" PMx_abs="46.09" NOx_abs="122.38" fuel_abs="109892.93" electricity_abs="0.00"/>
    </tripinfo>
    <tripinfo id="flow_z3.6" depart="18.00" departLane="-E28_1" departPos="5.10" departSpeed="15.30" departDelay="0.00" arrival="175.00" arrivalLane="-E29_0" arrivalPos="266.06" arrivalSpeed="14.60" duration="157.00" routeLength="1186.43" waitingTime="63.00" waitingCount="2" stopTime="0.00" timeLoss="77.98" rerouteNo="0" devices="tripinfo_flow_z3.6 emissions_flow_z3.6" vType="Car" speedFactor="1.10" vaporized="">
    <emissions CO_abs="1556.21" CO2_abs="341781.69" HC_abs="10.43" PMx_abs="27.47" NOx_abs="125.01" fuel_abs="110801.71" electricity_abs="0.00"/>
    </tripinfo>
    <tripinfo id="16" depart="32.00" departLane="E10_0" departPos="5.10" departSpeed="0.00" departDelay="0.00" arrival="177.00" arrivalLane="E7_0" arrivalPos="466.06" arrivalSpeed="14.11" duration="145.00" routeLength="1801.77" waitingTime="2.00" waitingCount="1" stopTime="0.00" timeLoss="19.91" rerouteNo="0" devices="tripinfo_16 emissions_16" vType="Car" speedFactor="1.06" vaporized="">
    <emissions CO_abs="2276.94" CO2_abs="365581.29" HC_abs="15.22" PMx_abs="38.47" NOx_abs="127.72" fuel_abs="118516.45" electricity_abs="0.00"/>
    </tripinfo>
    <tripinfo id="11" depart="22.00" departLane="-E33_0" departPos="5.10" departSpeed="0.00" departDelay="0.00" arrival="187.00" arrivalLane="-E2_0" arrivalPos="479.20" arrivalSpeed="13.96" duration="165.00" routeLength="2093.43" waitingTime="0.00" waitingCount="0" stopTime="0.00" timeLoss="15.50" rerouteNo="0" devices="tripinfo_11 emissions_11" vType="Car" speedFactor="1.03" vaporized="">
    <emissions CO_abs="2428.69" CO2_abs="398892.07" HC_abs="16.25" PMx_abs="46.17" NOx_abs="140.63" fuel_abs="129315.70" electricity_abs="0.00"/>
    </tripinfo>
    <tripinfo id="flow_z3.11" depart="33.00" departLane="-E28_1" departPos="5.10" departSpeed="15.34" departDelay="0.00" arrival="194.00" arrivalLane="-E29_1" arrivalPos="266.06" arrivalSpeed="15.27" duration="161.00" routeLength="1186.43" waitingTime="42.00" waitingCount="2" stopTime="0.00" timeLoss="81.75" rerouteNo="0" devices="tripinfo_flow_z3.11 emissions_flow_z3.11" vType="Car" speedFactor="1.10" vaporized="">
    <emissions CO_abs="1389.85" CO2_abs="331163.56" HC_abs="9.28" PMx_abs="25.85" NOx_abs="118.17" fuel_abs="107359.36" electricity_abs="0.00"/>
    </tripinfo>
    <tripinfo id="flow_z3.9" depart="27.00" departLane="-E28_1" departPos="5.10" departSpeed="16.79" departDelay="0.00" arrival="195.00" arrivalLane="-E29_1" arrivalPos="266.06" arrivalSpeed="15.79" duration="168.00" routeLength="1186.43" waitingTime="49.00" waitingCount="2" stopTime="0.00" timeLoss="96.04" rerouteNo="0" devices="tripinfo_flow_z3.9 emissions_flow_z3.9" vType="Car" speedFactor="1.21" vaporized="">
    <emissions CO_abs="1511.98" CO2_abs="347770.68" HC_abs="10.05" PMx_abs="22.65" NOx_abs="123.59" fuel_abs="112743.00" electricity_abs="0.00"/>
    </tripinfo>
    <tripinfo id="18" depart="36.00" departLane="E32_0" departPos="5.10" departSpeed="0.00" departDelay="0.00" arrival="197.00" arrivalLane="E17_0" arrivalPos="465.43" arrivalSpeed="12.73" duration="161.00" routeLength="1839.24" waitingTime="0.00" waitingCount="0" stopTime="0.00" timeLoss="17.64" rerouteNo="0" devices="tripinfo_18 emissions_18" vType="Car" speedFactor="0.95" vaporized="">
    <emissions CO_abs="2141.11" CO2_abs="386604.73" HC_abs="14.27" PMx_abs="39.39" NOx_abs="133.63" fuel_abs="125332.18" electricity_abs="0.00"/>
    </tripinfo>
    <tripinfo id="54" depart="108.00" departLane="-E6_0" departPos="5.10" departSpeed="0.00" departDelay="0.00" arrival="197.00" arrivalLane="E6_1" arrivalPos="466.06" arrivalSpeed="6.89" duration="89.00" routeLength="1043.03" waitingTime="1.00" waitingCount="1" stopTime="0.00" timeLoss="18.74" rerouteNo="0" devices="tripinfo_54 emissions_54" vType="Car" speedFactor="1.10" vaporized="">
    <emissions CO_abs="1494.70" CO2_abs="244364.50" HC_abs="9.98" PMx_abs="24.08" NOx_abs="83.85" fuel_abs="79219.50" electricity_abs="0.00"/>
    </tripinfo>
    <tripinfo id="flow_z2.1" depart="3.00" departLane="-E18_0" departPos="5.10" departSpeed="14.78" departDelay="0.00" arrival="197.00" arrivalLane="-E15_1" arrivalPos="479.20" arrivalSpeed="10.60" duration="194.00" routeLength="1988.38" waitingTime="8.00" waitingCount="2" stopTime="0.00" timeLoss="57.82" rerouteNo="0" devices="tripinfo_flow_z2.1 emissions_flow_z2.1" vType="Car" speedFactor="1.06" vaporized="">
    <emissions CO_abs="2357.24" CO2_abs="424838.68" HC_abs="15.69" PMx_abs="38.32" NOx_abs="147.51" fuel_abs="137726.93" electricity_abs="0.00"/>
    </tripinfo>
    <tripinfo id="flow_z2.3" depart="9.00" departLane="-E18_0" departPos="5.10" departSpeed="14.52" departDelay="0.00" arrival="199.00" arrivalLane="-E15_1" arrivalPos="479.20" arrivalSpeed="12.81" duration="190.00" routeLength="1984.04" waitingTime="7.00" waitingCount="1" stopTime="0.00" timeLoss="51.20" rerouteNo="0" devices="tripinfo_flow_z2.3 emissions_flow_z2.3" vType="Car" speedFactor="1.05" vaporized="">
    <emissions CO_abs="2399.66" CO2_abs="433862.45" HC_abs="15.99" PMx_abs="41.22" NOx_abs="150.61" fuel_abs="140652.48" electricity_abs="0.00"/>
    </tripinfo>
</tripinfos>