<?xml version="1.0" encoding="UTF-8"?>

<!-- generated on 2026-05-30T17:17:47.759585+00:00 by Eclipse SUMO sumo 1.26.0
<sumoConfiguration xmlns:xsi="http://www.w3.org/2001/XMLSchema-instance" xsi:noNamespaceSchemaLocation="http://sumo.dlr.de/xsd/sumoConfiguration.xsd">

    <input>
        <net-file value="manhattan.net.xml"/>
        <route-files value="routes.rou.xml,background.rou.xml"/>
        <additional-files value="mosaic_types.add.xml"/>
    </input>

    <output>
        <tripinfo-output value="/home/netsim/opt/tpnpr/tripinfo.xml"/>
    </output>

    <time>
        <begin value="0"/>
        <end value="3600"/>
        <step-length value="1.00"/>
    </time>

    <processing>
        <ignore-route-errors value="true"/>
        <time-to-teleport value="0"/>
    </processing>

    <report>
        <verbose value="true"/>
        <no-step-log value="true"/>
    </report>

    <emissions>
        <device.emissions.probability value="1.0"/>
    </emissions>

    <traci_server>
        <remote-port value="34979"/>
    </traci_server>

    <random_number>
        <seed value="100000"/>
    </random_number>

</sumoConfiguration>
-->

<tripinfos xmlns:xsi="http://www.w3.org/2001/XMLSchema-instance" xsi:noNamespaceSchemaLocation="http://sumo.dlr.de/xsd/tripinfo_file.xsd">
    <tripinfo id="13" depart="26.00" departLane="-E15_0" departPos="5.10" departSpeed="0.00" departDelay="0.00" arrival="71.00" arrivalLane="-E15_0" arrivalPos="479.20" arrivalSpeed="10.95" duration="45.00" routeLength="474.10" waitingTime="0.00" waitingCount="0" stopTime="0.00" timeLoss="5.36" rerouteNo="0" devices="tripinfo_13 emissions_13" vType="Car" speedFactor="0.88" vaporized="">
        <emissions CO_abs="427.71" CO2_abs="98146.47" HC_abs="2.86" PMx_abs="10.02" NOx_abs="33.13" fuel_abs="31817.79" electricity_abs="0.00"/>
    </tripinfo>
    <tripinfo id="flow_z3.1" depart="2.00" departLane="-E28_1" departPos="5.10" departSpeed="13.87" departDelay="0.33" arrival="85.00" arrivalLane="-E29_0" arrivalPos="266.06" arrivalSpeed="15.71" duration="83.00" routeLength="1186.43" waitingTime="0.00" waitingCount="0" stopTime="0.00" timeLoss="7.88" rerouteNo="0" devices="tripinfo_flow_z3.1 emissions_flow_z3.1" vType="Car" speedFactor="1.16" vaporized="">
        <emissions CO_abs="1604.66" CO2_abs="214719.38" HC_abs="10.75" PMx_abs="26.18" NOx_abs="77.79" fuel_abs="69609.21" electricity_abs="0.00"/>
    </tripinfo>
    <tripinfo id="22" depart="44.00" departLane="-E14_0" departPos="5.10" departSpeed="0.00" departDelay="0.00" arrival="99.00" arrivalLane="-E25_0" arrivalPos="279.20" arrivalSpeed="11.43" duration="55.00" routeLength="574.10" waitingTime="0.00" waitingCount="0" stopTime="0.00" timeLoss="5.64" rerouteNo="0" devices="tripinfo_22 emissions_22" vType="Car" speedFactor="0.85" vaporized="">
        <emissions CO_abs="471.12" CO2_abs="114066.97" HC_abs="3.15" PMx_abs="12.09" NOx_abs="38.75" fuel_abs="36979.06" electricity_abs="0.00"/>
    </tripinfo>
    <tripinfo id="flow_z3.0" depart="0.00" departLane="-E28_1" departPos="5.10" departSpeed="12.68" departDelay="0.00" arrival="104.00" arrivalLane="-E29_0" arrivalPos="266.06" arrivalSpeed="11.53" duration="104.00" routeLength="1186.43" waitingTime="0.00" waitingCount="0" stopTime="0.00" timeLoss="8.11" rerouteNo="0" devices="tripinfo_flow_z3.0 emissions_flow_z3.0" vType="Car" speedFactor="0.91" vaporized="">
        <emissions CO_abs="958.19" CO2_abs="202189.89" HC_abs="6.43" PMx_abs="24.84" NOx_abs="71.52" fuel_abs="65547.68" electricity_abs="0.00"/>
    </tripinfo>
    <tripinfo id="flow_z3.2" depart="4.00" departLane="-E28_1" departPos="5.10" departSpeed="13.74" departDelay="0.67" arrival="104.00" arrivalLane="-E29_1" arrivalPos="266.06" arrivalSpeed="12.55" duration="100.00" routeLength="1186.43" waitingTime="0.00" waitingCount="0" stopTime="0.00" timeLoss="11.90" rerouteNo="0" devices="tripinfo_flow_z3.2 emissions_flow_z3.2" vType="Car" speedFactor="0.99" vaporized="">
        <emissions CO_abs="1292.10" CO2_abs="217052.58" HC_abs="8.62" PMx_abs="22.92" NOx_abs="75.98" fuel_abs="70365.64" electricity_abs="0.00"/>
    </tripinfo>
    <tripinfo id="flow_z3.3" depart="5.00" departLane="-E28_1" departPos="5.10" departSpeed="10.42" departDelay="0.00" arrival="107.00" arrivalLane="-E29_0" arrivalPos="266.06" arrivalSpeed="13.34" duration="102.00" routeLength="1186.43" waitingTime="0.00" waitingCount="0" stopTime="0.00" timeLoss="13.61" rerouteNo="0" devices="tripinfo_flow_z3.3 emissions_flow_z3.3" vType="Car" speedFactor="0.99" vaporized="">
        <emissions CO_abs="1480.20" CO2_abs="236639.05" HC_abs="9.85" PMx_abs="23.73" NOx_abs="82.70" fuel_abs="76715.22" electricity_abs="0.00"/>
    </tripinfo>
    <tripinfo id="flow_z3.4" depart="7.00" departLane="-E28_1" departPos="5.10" departSpeed="11.71" departDelay="0.34" arrival="109.00" arrivalLane="-E29_0" arrivalPos="266.06" arrivalSpeed="13.08" duration="102.00" routeLength="1186.43" waitingTime="0.00" waitingCount="0" stopTime="0.00" timeLoss="14.65" rerouteNo="0" devices="tripinfo_flow_z3.4 emissions_flow_z3.4" vType="Car" speedFactor="1.01" vaporized="">
        <emissions CO_abs="1489.24" CO2_abs="237849.02" HC_abs="9.92" PMx_abs="23.55" NOx_abs="83.10" fuel_abs="77107.46" electricity_abs="0.00"/>
    </tripinfo>
    <tripinfo id="flow_z3.5" depart="9.00" departLane="-E28_1" departPos="5.10" departSpeed="12.78" departDelay="0.67" arrival="110.00" arrivalLane="-E29_1" arrivalPos="266.06" arrivalSpeed="14.15" duration="101.00" routeLength="1186.43" waitingTime="0.00" waitingCount="0" stopTime="0.00" timeLoss="18.51" rerouteNo="0" devices="tripinfo_flow_z3.5 emissions_flow_z3.5" vType="Car" speedFactor="1.06" vaporized="">
        <emissions CO_abs="1608.83" CO2_abs="245966.23" HC_abs="10.71" PMx_abs="23.75" NOx_abs="85.99" fuel_abs="79738.88" electricity_abs="0.00"/>
    </tripinfo>
    <tripinfo id="flow_z3.6" depart="10.00" departLane="-E28_1" departPos="5.10" departSpeed="9.98" departDelay="0.00" arrival="111.00" arrivalLane="-E29_0" arrivalPos="266.06" arrivalSpeed="15.13" duration="101.00" routeLength="1186.43" waitingTime="0.00" waitingCount="0" stopTime="0.00" timeLoss="21.93" rerouteNo="0" devices="tripinfo_flow_z3.6 emissions_flow_z3.6" vType="Car" speedFactor="1.10" vaporized="">
        <emissions CO_abs="1731.64" CO2_abs="264448.99" HC_abs="11.52" PMx_abs="25.48" NOx_abs="92.64" fuel_abs="85730.75" electricity_abs="0.00"/>
    </tripinfo>
    <tripinfo id="flow_z3.8" depart="14.00" departLane="-E28_1" departPos="5.10" departSpeed="10.71" departDelay="0.67" arrival="113.00" arrivalLane="-E29_0" arrivalPos="266.06" arrivalSpeed="14.16" duration="99.00" routeLength="1186.43" waitingTime="0.00" waitingCount="0" stopTime="0.00" timeLoss="17.60" rerouteNo="0" devices="tripinfo_flow_z3.8 emissions_flow_z3.8" vType="Car" speedFactor="1.07" vaporized="">
        <emissions CO_abs="1681.45" CO2_abs="249834.83" HC_abs="11.19" PMx_abs="24.08" NOx_abs="87.36" fuel_abs="80992.99" electricity_abs="0.00"/>
    </tripinfo>
    <tripinfo id="12" depart="24.00" departLane="E6_0" departPos="5.10" departSpeed="0.00" departDelay="0.00" arrival="128.00" arrivalLane="-E32_0" arrivalPos="266.06" arrivalSpeed="12.81" duration="104.00" routeLength="1239.52" waitingTime="0.00" waitingCount="0" stopTime="0.00" timeLoss="10.15" rerouteNo="0" devices="tripinfo_12 emissions_12" vType="Car" speedFactor="0.97" vaporized="">
        <emissions CO_abs="1224.71" CO2_abs="228081.93" HC_abs="8.20" PMx_abs="26.08" NOx_abs="79.61" fuel_abs="73941.29" electricity_abs="0.00"/>
    </tripinfo>
    <tripinfo id="21" depart="42.00" departLane="-E25_0" departPos="5.10" departSpeed="0.00" departDelay="0.00" arrival="131.00" arrivalLane="-E3_0" arrivalPos="483.20" arrivalSpeed="12.67" duration="89.00" routeLength="1079.36" waitingTime="0.00" waitingCount="0" stopTime="0.00" timeLoss="7.64" rerouteNo="0" devices="tripinfo_21 emissions_21" vType="Car" speedFactor="0.96" vaporized="">
        <emissions CO_abs="1104.78" CO2_abs="197370.71" HC_abs="7.38" PMx_abs="21.75" NOx_abs="68.58" fuel_abs="63985.01" electricity_abs="0.00"/>
    </tripinfo>
    <tripinfo id="30" depart="60.00" departLane="E9_0" departPos="5.10" departSpeed="0.00" departDelay="0.00" arrival="132.00" arrivalLane="E19_0" arrivalPos="283.20" arrivalSpeed="15.48" duration="72.00" routeLength="878.10" waitingTime="4.00" waitingCount="1" stopTime="0.00" timeLoss="16.25" rerouteNo="0" devices="tripinfo_30 emissions_30" vType="Car" speedFactor="1.13" vaporized="">
        <emissions CO_abs="1303.24" CO2_abs="199995.42" HC_abs="8.71" PMx_abs="19.60" NOx_abs="69.48" fuel_abs="64835.64" electricity_abs="0.00"/>
    </tripinfo>
    <tripinfo id="4" depart="8.00" departLane="-E39_0" departPos="5.10" departSpeed="0.00" departDelay="0.00" arrival="147.00" arrivalLane="-E10_0" arrivalPos="479.20" arrivalSpeed="11.51" duration="139.00" routeLength="1552.66" waitingTime="0.00" waitingCount="0" stopTime="0.00" timeLoss="13.34" rerouteNo="0" devices="tripinfo_4 emissions_4" vType="Car" speedFactor="0.90" vaporized="">
        <emissions CO_abs="1471.99" CO2_abs="297168.75" HC_abs="9.83" PMx_abs="32.18" NOx_abs="102.44" fuel_abs="96338.36" electricity_abs="0.00"/>
    </tripinfo>
    <tripinfo id="1" depart="2.00" departLane="-E29_0" departPos="5.10" departSpeed="0.00" departDelay="0.00" arrival="153.00" arrivalLane="-E24_0" arrivalPos="283.20" arrivalSpeed="13.87" duration="151.00" routeLength="1942.97" waitingTime="0.00" waitingCount="0" stopTime="0.00" timeLoss="14.95" rerouteNo="0" devices="tripinfo_1 emissions_1" vType="Car" speedFactor="1.04" vaporized="">
        <emissions CO_abs="2222.93" CO2_abs="361566.04" HC_abs="14.89" PMx_abs="42.06" NOx_abs="127.11" fuel_abs="117215.01" electricity_abs="0.00"/>
    </tripinfo>
    <tripinfo id="48" depart="96.00" departLane="E9_0" departPos="5.10" departSpeed="0.00" departDelay="0.00" arrival="158.00" arrivalLane="E10_0" arrivalPos="479.20" arrivalSpeed="14.14" duration="62.00" routeLength="772.65" waitingTime="0.00" waitingCount="0" stopTime="0.00" timeLoss="6.54" rerouteNo="0" devices="tripinfo_48 emissions_48" vType="Car" speedFactor="1.03" vaporized="">
        <emissions CO_abs="1016.81" CO2_abs="170585.68" HC_abs="6.80" PMx_abs="18.39" NOx_abs="58.66" fuel_abs="55301.53" electricity_abs="0.00"/>
    </tripinfo>
    <tripinfo id="23" depart="46.00" departLane="-E16_0" departPos="5.10" departSpeed="0.00" departDelay="0.00" arrival="162.00" arrivalLane="-E29_0" arrivalPos="266.06" arrivalSpeed="13.64" duration="116.00" routeLength="1384.98" waitingTime="2.00" waitingCount="1" stopTime="0.00" timeLoss="18.25" rerouteNo="0" devices="tripinfo_23 emissions_23" vType="Car" speedFactor="1.05" vaporized="">
        <emissions CO_abs="1713.66" CO2_abs="300617.31" HC_abs="11.48" PMx_abs="33.37" NOx_abs="104.14" fuel_abs="97456.16" electricity_abs="0.00"/>
    </tripinfo>
    <tripinfo id="flow_z1.2" depart="4.00" departLane="-E1_0" departPos="5.10" departSpeed="13.56" departDelay="0.67" arrival="165.00" arrivalLane="E19_1" arrivalPos="283.20" arrivalSpeed="15.77" duration="161.00" routeLength="2181.19" waitingTime="0.00" waitingCount="0" stopTime="0.00" timeLoss="22.44" rerouteNo="0" devices="tripinfo_flow_z1.2 emissions_flow_z1.2" vType="Car" speedFactor="1.14" vaporized="">
        <emissions CO_abs="2610.80" CO2_abs="376767.99" HC_abs="17.48" PMx_abs="46.12" NOx_abs="136.03" fuel_abs="122143.42" electricity_abs="0.00"/>
    </tripinfo>
    <tripinfo id="flow_z3.9" depart="15.00" departLane="-E28_1" departPos="5.10" departSpeed="7.03" departDelay="0.01" arrival="166.00" arrivalLane="-E29_0" arrivalPos="266.06" arrivalSpeed="16.79" duration="151.00" routeLength="1186.43" waitingTime="56.00" waitingCount="2" stopTime="0.00" timeLoss="78.20" rerouteNo="0" devices="tripinfo_flow_z3.9 emissions_flow_z3.9" vType="Car" speedFactor="1.21" vaporized="">
        <emissions CO_abs="1987.07" CO2_abs="360559.96" HC_abs="13.25" PMx_abs="26.76" NOx_abs="131.27" fuel_abs="116889.06" electricity_abs="0.00"/>
    </tripinfo>
    <tripinfo id="flow_z1.0" depart="0.00" departLane="-E1_0" departPos="5.10" departSpeed="13.81" departDelay="0.00" arrival="168.00" arrivalLane="E19_0" arrivalPos="283.20" arrivalSpeed="13.06" duration="168.00" routeLength="2181.19" waitingTime="0.00" waitingCount="0" stopTime="0.00" timeLoss="8.65" rerouteNo="0" devices="tripinfo_flow_z1.0 emissions_flow_z1.0" vType="Car" speedFactor="0.99" vaporized="">
        <emissions CO_abs="1905.88" CO2_abs="336816.92" HC_abs="12.83" PMx_abs="46.27" NOx_abs="121.56" fuel_abs="109192.27" electricity_abs="0.00"/>
    </tripinfo>
    <tripinfo id="16" depart="32.00" departLane="E10_0" departPos="5.10" departSpeed="0.00" departDelay="0.00" arrival="177.00" arrivalLane="E7_0" arrivalPos="466.06" arrivalSpeed="14.38" duration="145.00" routeLength="1801.77" waitingTime="3.00" waitingCount="1" stopTime="0.00" timeLoss="20.14" rerouteNo="0" devices="tripinfo_16 emissions_16" vType="Car" speedFactor="1.06" vaporized="">
        <emissions CO_abs="2277.90" CO2_abs="365553.37" HC_abs="15.22" PMx_abs="38.61" NOx_abs="128.08" fuel_abs="118507.43" electricity_abs="0.00"/>
    </tripinfo>
    <tripinfo id="flow_z1.3" depart="5.00" departLane="-E1_0" departPos="5.10" departSpeed="10.50" departDelay="0.00" arrival="177.00" arrivalLane="E19_0" arrivalPos="283.20" arrivalSpeed="13.45" duration="172.00" routeLength="2181.19" waitingTime="0.00" waitingCount="0" stopTime="0.00" timeLoss="17.38" rerouteNo="0" devices="tripinfo_flow_z1.3 emissions_flow_z1.3" vType="Car" speedFactor="1.03" vaporized="">
        <emissions CO_abs="2557.70" CO2_abs="392163.09" HC_abs="17.08" PMx_abs="44.28" NOx_abs="139.69" fuel_abs="127134.25" electricity_abs="0.00"/>
    </tripinfo>
    <tripinfo id="flow_z1.1" depart="2.00" departLane="-E1_0" departPos="5.10" departSpeed="13.03" departDelay="0.33" arrival="181.00" arrivalLane="E19_0" arrivalPos="283.20" arrivalSpeed="12.83" duration="179.00" routeLength="2181.19" waitingTime="0.00" waitingCount="0" stopTime="0.00" timeLoss="10.43" rerouteNo="0" devices="tripinfo_flow_z1.1 emissions_flow_z1.1" vType="Car" speedFactor="0.94" vaporized="">
        <emissions CO_abs="1917.98" CO2_abs="354856.40" HC_abs="12.86" PMx_abs="44.36" NOx_abs="126.82" fuel_abs="115040.36" electricity_abs="0.00"/>
    </tripinfo>
    <tripinfo id="flow_z3.7" depart="12.00" departLane="-E28_1" departPos="5.10" departSpeed="9.90" departDelay="0.34" arrival="185.00" arrivalLane="-E29_0" arrivalPos="266.06" arrivalSpeed="11.23" duration="173.00" routeLength="1186.43" waitingTime="62.00" waitingCount="1" stopTime="0.00" timeLoss="76.31" rerouteNo="0" devices="tripinfo_flow_z3.7 emissions_flow_z3.7" vType="Car" speedFactor="0.90" vaporized="">
        <emissions CO_abs="1173.95" CO2_abs="336370.37" HC_abs="7.84" PMx_abs="25.05" NOx_abs="121.63" fuel_abs="109047.68" electricity_abs="0.00"/>
    </tripinfo>
    <tripinfo id="11" depart="22.00" departLane="-E33_0" departPos="5.10" departSpeed="0.00" departDelay="0.00" arrival="186.00" arrivalLane="-E2_0" arrivalPos="479.20" arrivalSpeed="14.17" duration="164.00" routeLength="2093.43" waitingTime="0.00" waitingCount="0" stopTime="0.00" timeLoss="15.00" rerouteNo="0" devices="tripinfo_11 emissions_11" vType="Car" speedFactor="1.03" vaporized="">
        <emissions CO_abs="2409.20" CO2_abs="386064.72" HC_abs="16.11" PMx_abs="43.05" NOx_abs="135.57" fuel_abs="125157.11" electricity_abs="0.00"/>
    </tripinfo>
    <tripinfo id="flow_z3.14" depart="24.00" departLane="-E28_1" departPos="5.10" departSpeed="5.36" departDelay="0.68" arrival="187.00" arrivalLane="-E29_0" arrivalPos="266.06" arrivalSpeed="11.70" duration="163.00" routeLength="1186.43" waitingTime="53.00" waitingCount="1" stopTime="0.00" timeLoss="70.01" rerouteNo="0" devices="tripinfo_flow_z3.14 emissions_flow_z3.14" vType="Car" speedFactor="0.93" vaporized="">
        <emissions CO_abs="1359.93" CO2_abs="338690.92" HC_abs="9.06" PMx_abs="24.65" NOx_abs="120.51" fuel_abs="109799.66" electricity_abs="0.00"/>
    </tripinfo>
    <tripinfo id="flow_z3.13" depart="23.00" departLane="-E28_1" departPos="5.10" departSpeed="9.21" departDelay="1.34" arrival="190.00" arrivalLane="-E29_0" arrivalPos="266.06" arrivalSpeed="12.04" duration="167.00" routeLength="1186.43" waitingTime="50.00" waitingCount="1" stopTime="0.00" timeLoss="69.91" rerouteNo="0" devices="tripinfo_flow_z3.13 emissions_flow_z3.13" vType="Car" speedFactor="0.90" vaporized="">
        <emissions CO_abs="1120.66" CO2_abs="316626.95" HC_abs="7.47" PMx_abs="23.80" NOx_abs="112.33" fuel_abs="102646.91" electricity_abs="0.00"/>
    </tripinfo>
    <tripinfo id="flow_z3.15" depart="26.00" departLane="-E28_1" departPos="5.10" departSpeed="6.40" departDelay="1.01" arrival="190.00" arrivalLane="-E29_1" arrivalPos="266.06" arrivalSpeed="14.81" duration="164.00" routeLength="1186.43" waitingTime="48.00" waitingCount="2" stopTime="0.00" timeLoss="82.32" rerouteNo="0" devices="tripinfo_flow_z3.15 emissions_flow_z3.15" vType="Car" speedFactor="1.07" vaporized="">
        <emissions CO_abs="1797.42" CO2_abs="374628.35" HC_abs="11.93" PMx_abs="24.55" NOx_abs="131.42" fuel_abs="121449.71" electricity_abs="0.00"/>
    </tripinfo>
    <tripinfo id="flow_z3.17" depart="30.00" departLane="-E28_1" departPos="5.10" departSpeed="5.98" departDelay="1.68" arrival="191.00" arrivalLane="-E29_1" arrivalPos="266.06" arrivalSpeed="14.63" duration="161.00" routeLength="1186.43" waitingTime="45.00" waitingCount="1" stopTime="0.00" timeLoss="83.05" rerouteNo="0" devices="tripinfo_flow_z3.17 emissions_flow_z3.17" vType="Car" speedFactor="1.11" vaporized="">
        <emissions CO_abs="1997.75" CO2_abs="384218.95" HC_abs="13.24" PMx_abs="23.86" NOx_abs="134.20" fuel_abs="124558.58" electricity_abs="0.00"/>
    </tripinfo>
    <tripinfo id="18" depart="36.00" departLane="E32_0" departPos="5.10" departSpeed="0.00" departDelay="0.00" arrival="197.00" arrivalLane="E17_0" arrivalPos="465.43" arrivalSpeed="12.98" duration="161.00" routeLength="1839.24" waitingTime="0.00" waitingCount="0" stopTime="0.00" timeLoss="18.02" rerouteNo="0" devices="tripinfo_18 emissions_18" vType="Car" speedFactor="0.95" vaporized="">
        <emissions CO_abs="2024.83" CO2_abs="378426.54" HC_abs="13.51" PMx_abs="39.82" NOx_abs="130.78" fuel_abs="122680.99" electricity_abs="0.00"/>
    </tripinfo>
    <tripinfo id="54" depart="108.00" departLane="-E6_0" departPos="5.10" departSpeed="0.00" departDelay="0.00" arrival="197.00" arrivalLane="E6_1" arrivalPos="466.06" arrivalSpeed="6.89" duration="89.00" routeLength="1043.03" waitingTime="1.00" waitingCount="1" stopTime="0.00" timeLoss="18.77" rerouteNo="0" devices="tripinfo_54 emissions_54" vType="Car" speedFactor="1.10" vaporized="">
        <emissions CO_abs="1414.45" CO2_abs="232695.80" HC_abs="9.46" PMx_abs="23.92" NOx_abs="80.53" fuel_abs="75436.66" electricity_abs="0.00"/>
    </tripinfo>
    <tripinfo id="flow_z2.1" depart="2.00" departLane="-E18_0" departPos="5.10" departSpeed="13.62" departDelay="0.33" arrival="198.00" arrivalLane="-E15_1" arrivalPos="479.20" arrivalSpeed="10.12" duration="196.00" routeLength="1988.38" waitingTime="4.00" waitingCount="2" stopTime="0.00" timeLoss="59.83" rerouteNo="0" devices="tripinfo_flow_z2.1 emissions_flow_z2.1" vType="Car" speedFactor="1.06" vaporized="">
        <emissions CO_abs="2156.82" CO2_abs="432959.74" HC_abs="14.38" PMx_abs="42.06" NOx_abs="149.23" fuel_abs="140359.98" electricity_abs="0.00"/>
    </tripinfo>
    <tripinfo id="3" depart="6.00" departLane="E37_0" departPos="5.10" departSpeed="0.00" departDelay="0.00" arrival="201.00" arrivalLane="-E14_1" arrivalPos="279.20" arrivalSpeed="14.15" duration="195.00" routeLength="1837.99" waitingTime="47.00" waitingCount="1" stopTime="0.00" timeLoss="67.50" rerouteNo="0" devices="tripinfo_3 emissions_3" vType="Car" speedFactor="1.06" vaporized="">
        <emissions CO_abs="2446.01" CO2_abs="461532.51" HC_abs="16.35" PMx_abs="41.42" NOx_abs="164.97" fuel_abs="149623.20" electricity_abs="0.00"/>
    </tripinfo>
    <tripinfo id="flow_z3.11" depart="19.00" departLane="-E28_1" departPos="5.10" departSpeed="7.56" departDelay="0.67" arrival="204.00" arrivalLane="-E29_1" arrivalPos="266.06" arrivalSpeed="14.84" duration="185.00" routeLength="1186.43" waitingTime="56.00" waitingCount="2" stopTime="0.00" timeLoss="105.75" rerouteNo="0" devices="tripinfo_flow_z3.11 emissions_flow_z3.11" vType="Car" speedFactor="1.10" vaporized="">
        <emissions CO_abs="1483.78" CO2_abs="375381.47" HC_abs="9.85" PMx_abs="23.58" NOx_abs="131.92" fuel_abs="121694.13" electricity_abs="0.00"/>
    </tripinfo>
    <tripinfo id="49" depart="98.00" departLane="E7_0" departPos="5.10" departSpeed="0.00" departDelay="0.00" arrival="209.00" arrivalLane="E34_0" arrivalPos="266.06" arrivalSpeed="11.22" duration="111.00" routeLength="1101.24" waitingTime="0.00" waitingCount="0" stopTime="0.00" timeLoss="10.76" rerouteNo="0" devices="tripinfo_49 emissions_49" vType="Car" speedFactor="0.81" vaporized="">
        <emissions CO_abs="859.06" CO2_abs="217160.19" HC_abs="5.74" PMx_abs="22.24" NOx_abs="73.95" fuel_abs="70400.65" electricity_abs="0.00"/>
    </tripinfo>
    <tripinfo id="flow_z3.12" depart="21.00" departLane="-E28_1" departPos="5.10" departSpeed="8.33" departDelay="1.01" arrival="210.00" arrivalLane="-E29_1" arrivalPos="266.06" arrivalSpeed="12.03" duration="189.00" routeLength="1186.43" waitingTime="55.00" waitingCount="1" stopTime="0.00" timeLoss="96.29" rerouteNo="0" devices="tripinfo_flow_z3.12 emissions_flow_z3.12" vType="Car" speedFactor="0.94" vaporized="">
        <emissions CO_abs="1295.06" CO2_abs="368507.72" HC_abs="8.60" PMx_abs="23.21" NOx_abs="128.18" fuel_abs="119465.79" electricity_abs="0.00"/>
    </tripinfo>
    <tripinfo id="flow_z3.10" depart="17.00" departLane="-E28_1" departPos="5.10" departSpeed="7.25" departDelay="0.34" arrival="215.00" arrivalLane="-E29_0" arrivalPos="266.06" arrivalSpeed="8.33" duration="198.00" routeLength="1186.43" waitingTime="55.00" waitingCount="1" stopTime="0.00" timeLoss="113.17" rerouteNo="0" devices="tripinfo_flow_z3.10 emissions_flow_z3.10" vType="Car" speedFactor="1.02" vaporized="">
        <emissions CO_abs="826.30" CO2_abs="376928.83" HC_abs="5.53" PMx_abs="29.92" NOx_abs="136.76" fuel_abs="122196.71" electricity_abs="0.00"/>
    </tripinfo>
    <tripinfo id="flow_z3.26" depart="49.00" departLane="-E28_1" departPos="5.10" departSpeed="5.54" departDelay="5.68" arrival="216.00" arrivalLane="-E29_1" arrivalPos="266.06" arrivalSpeed="9.11" duration="167.00" routeLength="1186.43" waitingTime="36.00" waitingCount="1" stopTime="0.00" timeLoss="68.09" rerouteNo="0" devices="tripinfo_flow_z3.26 emissions_flow_z3.26" vType="Car" speedFactor="0.88" vaporized="">
        <emissions CO_abs="1243.25" CO2_abs="344408.83" HC_abs="8.26" PMx_abs="24.68" NOx_abs="119.03" fuel_abs="111653.21" electricity_abs="0.00"/>
    </tripinfo>
    <tripinfo id="flow_z3.29" depart="55.00" departLane="-E28_1" departPos="5.10" departSpeed="6.12" departDelay="6.69" arrival="217.00" arrivalLane="-E29_0" arrivalPos="266.06" arrivalSpeed="13.36" duration="162.00" routeLength="1186.43" waitingTime="32.00" waitingCount="1" stopTime="0.00" timeLoss="93.08" rerouteNo="0" devices="tripinfo_flow_z3.29 emissions_flow_z3.29" vType="Car" speedFactor="1.26" vaporized="">
        <emissions CO_abs="1909.41" CO2_abs="386814.23" HC_abs="12.65" PMx_abs="24.63" NOx_abs="132.89" fuel_abs="125399.94" electricity_abs="0.00"/>
    </tripinfo>
    <tripinfo id="41" depart="82.00" departLane="E14_0" departPos="5.10" departSpeed="0.00" departDelay="0.00" arrival="218.00" arrivalLane="E37_0" arrivalPos="266.06" arrivalSpeed="12.87" duration="136.00" routeLength="1537.42" waitingTime="0.00" waitingCount="0" stopTime="0.00" timeLoss="17.33" rerouteNo="0" devices="tripinfo_41 emissions_41" vType="Car" speedFactor="0.94" vaporized="">
        <emissions CO_abs="1628.51" CO2_abs="314809.90" HC_abs="10.88" PMx_abs="32.38" NOx_abs="107.45" fuel_abs="102057.18" electricity_abs="0.00"/>
    </tripinfo>
    <tripinfo id="42" depart="84.00" departLane="-E37_0" departPos="5.10" departSpeed="0.00" departDelay="0.00" arrival="222.00" arrivalLane="-E24_0" arrivalPos="283.20" arrivalSpeed="12.26" duration="138.00" routeLength="1551.74" waitingTime="4.00" waitingCount="1" stopTime="0.00" timeLoss="20.74" rerouteNo="0" devices="tripinfo_42 emissions_42" vType="Car" speedFactor="0.96" vaporized="">
        <emissions CO_abs="1741.93" CO2_abs="329678.44" HC_abs="11.63" PMx_abs="33.53" NOx_abs="113.80" fuel_abs="106877.36" electricity_abs="0.00"/>
    </tripinfo>
    <tripinfo id="flow_z2.0" depart="0.00" departLane="-E18_0" departPos="5.10" departSpeed="12.79" departDelay="0.00" arrival="223.00" arrivalLane="-E15_0" arrivalPos="479.20" arrivalSpeed="8.33" duration="223.00" routeLength="1988.38" waitingTime="0.00" waitingCount="0" stopTime="0.00" timeLoss="65.23" rerouteNo="0" devices="tripinfo_flow_z2.0 emissions_flow_z2.0" vType="Car" speedFactor="0.92" vaporized="">
        <emissions CO_abs="721.48" CO2_abs="390426.85" HC_abs="4.92" PMx_abs="50.36" NOx_abs="143.77" fuel_abs="126573.34" electricity_abs="0.00"/>
    </tripinfo>
    <tripinfo id="flow_z3.25" depart="47.00" departLane="-E28_1" departPos="5.10" departSpeed="6.10" departDelay="5.35" arrival="223.00" arrivalLane="-E29_0" arrivalPos="266.06" arrivalSpeed="10.82" duration="176.00" routeLength="1186.43" waitingTime="37.00" waitingCount="2" stopTime="0.00" timeLoss="75.73" rerouteNo="0" devices="tripinfo_flow_z3.25 emissions_flow_z3.25" vType="Car" speedFactor="0.87" vaporized="">
        <emissions CO_abs="1198.17" CO2_abs="351429.83" HC_abs="7.96" PMx_abs="24.26" NOx_abs="120.69" fuel_abs="113929.26" electricity_abs="0.00"/>
    </tripinfo>
    <tripinfo id="68" depart="136.00" departLane="-E13_0" departPos="5.10" departSpeed="0.00" departDelay="0.00" arrival="225.00" arrivalLane="E27_1" arrivalPos="279.20" arrivalSpeed="8.33" duration="89.00" routeLength="772.65" waitingTime="5.00" waitingCount="1" stopTime="0.00" timeLoss="33.35" rerouteNo="0" devices="tripinfo_68 emissions_68" vType="Car" speedFactor="1.01" vaporized="">
        <emissions CO_abs="579.82" CO2_abs="187974.34" HC_abs="3.89" PMx_abs="19.20" NOx_abs="66.10" fuel_abs="60939.23" electricity_abs="0.00"/>
    </tripinfo>
    <tripinfo id="36" depart="72.00" departLane="E36_0" departPos="5.10" departSpeed="0.00" departDelay="0.00" arrival="227.00" arrivalLane="-E31_0" arrivalPos="279.20" arrivalSpeed="11.33" duration="155.00" routeLength="1572.41" waitingTime="0.00" waitingCount="0" stopTime="0.00" timeLoss="14.93" rerouteNo="0" devices="tripinfo_36 emissions_36" vType="Car" speedFactor="0.83" vaporized="">
        <emissions CO_abs="1289.60" CO2_abs="316333.32" HC_abs="8.61" PMx_abs="33.52" NOx_abs="107.95" fuel_abs="102551.39" electricity_abs="0.00"/>
    </tripinfo>
    <tripinfo id="flow_z1.4" depart="7.00" departLane="-E1_0" departPos="5.10" departSpeed="12.42" departDelay="0.34" arrival="228.00" arrivalLane="E19_0" arrivalPos="283.20" arrivalSpeed="13.37" duration="221.00" routeLength="2181.19" waitingTime="43.00" waitingCount="1" stopTime="0.00" timeLoss="62.95" rerouteNo="0" devices="tripinfo_flow_z1.4 emissions_flow_z1.4" vType="Car" speedFactor="1.00" vaporized="">
        <emissions CO_abs="2784.78" CO2_abs="496725.78" HC_abs="18.57" PMx_abs="44.69" NOx_abs="178.41" fuel_abs="161032.34" electricity_abs="0.00"/>
    </tripinfo>
    <tripinfo id="flow_z1.6" depart="10.00" departLane="-E1_0" departPos="5.10" departSpeed="8.77" departDelay="0.00" arrival="229.00" arrivalLane="E19_1" arrivalPos="283.20" arrivalSpeed="12.23" duration="219.00" routeLength="2181.19" waitingTime="37.00" waitingCount="1" stopTime="0.00" timeLoss="56.38" rerouteNo="0" devices="tripinfo_flow_z1.6 emissions_flow_z1.6" vType="Car" speedFactor="0.97" vaporized="">
        <emissions CO_abs="2463.40" CO2_abs="471202.47" HC_abs="16.45" PMx_abs="45.26" NOx_abs="168.35" fuel_abs="152758.20" electricity_abs="0.00"/>
    </tripinfo>
    <tripinfo id="flow_z1.7" depart="12.00" departLane="-E1_0" departPos="5.10" departSpeed="15.01" departDelay="0.34" arrival="229.00" arrivalLane="E19_0" arrivalPos="283.20" arrivalSpeed="14.95" duration="217.00" routeLength="2181.19" waitingTime="36.00" waitingCount="1" stopTime="0.00" timeLoss="71.04" rerouteNo="0" devices="tripinfo_flow_z1.7 emissions_flow_z1.7" vType="Car" speedFactor="1.08" vaporized="">
        <emissions CO_abs="2446.64" CO2_abs="457879.46" HC_abs="16.34" PMx_abs="44.13" NOx_abs="163.69" fuel_abs="148439.01" electricity_abs="0.00"/>
    </tripinfo>
    <tripinfo id="flow_z1.11" depart="19.00" departLane="-E1_0" departPos="5.10" departSpeed="11.14" departDelay="0.67" arrival="231.00" arrivalLane="E19_1" arrivalPos="283.20" arrivalSpeed="15.08" duration="212.00" routeLength="2181.19" waitingTime="31.00" waitingCount="1" stopTime="0.00" timeLoss="67.72" rerouteNo="0" devices="tripinfo_flow_z1.11 emissions_flow_z1.11" vType="Car" speedFactor="1.10" vaporized="">
        <emissions CO_abs="3079.42" CO2_abs="518340.32" HC_abs="20.51" PMx_abs="47.21" NOx_abs="184.12" fuel_abs="168039.28" electricity_abs="0.00"/>
    </tripinfo>
    <tripinfo id="flow_z1.13" depart="22.00" departLane="-E1_0" departPos="5.10" departSpeed="7.79" departDelay="0.34" arrival="231.00" arrivalLane="E19_0" arrivalPos="283.20" arrivalSpeed="16.62" duration="209.00" routeLength="2181.19" waitingTime="29.00" waitingCount="1" stopTime="0.00" timeLoss="81.11" rerouteNo="0" devices="tripinfo_flow_z1.13 emissions_flow_z1.13" vType="Car" speedFactor="1.24" vaporized="">
        <emissions CO_abs="3653.41" CO2_abs="542038.76" HC_abs="24.26" PMx_abs="43.65" NOx_abs="192.83" fuel_abs="175721.46" electricity_abs="0.00"/>
    </tripinfo>