<?xml version="1.0" encoding="UTF-8"?>

<!-- generated on 2026-05-30T17:27:41.845418+00:00 by Eclipse SUMO sumo 1.26.0
<sumoConfiguration xmlns:xsi="http://www.w3.org/2001/XMLSchema-instance" xsi:noNamespaceSchemaLocation="http://sumo.dlr.de/xsd/sumoConfiguration.xsd">

    <input>
        <net-file value="manhattan.net.xml"/>
        <route-files value="routes.rou.xml,background.rou.xml"/>
        <additional-files value="mosaic_types.add.xml"/>
    </input>

    <output>
        <tripinfo-output value="/home/netsim/opt/tpnpr/tripinfo.xml"/>
    </output>

    <time>
        <begin value="0"/>
        <end value="3600"/>
        <step-length value="1.00"/>
    </time>

    <processing>
        <ignore-route-errors value="true"/>
        <time-to-teleport value="0"/>
    </processing>

    <report>
        <verbose value="true"/>
        <no-step-log value="true"/>
    </report>

    <emissions>
        <device.emissions.probability value="1.0"/>
    </emissions>

    <traci_server>
        <remote-port value="41059"/>
    </traci_server>

    <random_number>
        <seed value="100000"/>
    </random_number>

</sumoConfiguration>
-->

<tripinfos xmlns:xsi="http://www.w3.org/2001/XMLSchema-instance" xsi:noNamespaceSchemaLocation="http://sumo.dlr.de/xsd/tripinfo_file.xsd">
    <tripinfo id="13" depart="26.00" departLane="-E15_0" departPos="5.10" departSpeed="0.00" departDelay="0.00" arrival="64.00" arrivalLane="-E15_0" arrivalPos="479.20" arrivalSpeed="14.54" duration="38.00" routeLength="474.10" waitingTime="0.00" waitingCount="0" stopTime="0.00" timeLoss="5.26" rerouteNo="0" devices="tripinfo_13 emissions_13" vType="Car" speedFactor="1.06" vaporized="">
        <emissions CO_abs="623.73" CO2_abs="106235.53" HC_abs="4.17" PMx_abs="11.46" NOx_abs="36.52" fuel_abs="34440.08" electricity_abs="0.00"/>
    </tripinfo>
    <tripinfo id="22" depart="44.00" departLane="-E14_0" departPos="5.10" departSpeed="0.00" departDelay="0.00" arrival="88.00" arrivalLane="-E25_0" arrivalPos="279.20" arrivalSpeed="13.77" duration="44.00" routeLength="574.10" waitingTime="0.00" waitingCount="0" stopTime="0.00" timeLoss="5.37" rerouteNo="0" devices="tripinfo_22 emissions_22" vType="Car" speedFactor="1.08" vaporized="">
        <emissions CO_abs="774.99" CO2_abs="122112.22" HC_abs="5.18" PMx_abs="13.30" NOx_abs="42.37" fuel_abs="39587.07" electricity_abs="0.00"/>
    </tripinfo>
    <tripinfo id="flow_z3.0" depart="0.00" departLane="-E28_1" departPos="5.10" departSpeed="12.68" departDelay="0.00" arrival="104.00" arrivalLane="-E29_0" arrivalPos="266.06" arrivalSpeed="11.39" duration="104.00" routeLength="1186.43" waitingTime="0.00" waitingCount="0" stopTime="0.00" timeLoss="7.99" rerouteNo="0" devices="tripinfo_flow_z3.0 emissions_flow_z3.0" vType="Car" speedFactor="0.91" vaporized="">
        <emissions CO_abs="950.04" CO2_abs="198943.53" HC_abs="6.37" PMx_abs="24.24" NOx_abs="70.23" fuel_abs="64495.23" electricity_abs="0.00"/>
    </tripinfo>
    <tripinfo id="flow_z3.2" depart="2.00" departLane="-E28_1" departPos="5.10" departSpeed="5.68" departDelay="0.33" arrival="104.00" arrivalLane="-E29_1" arrivalPos="266.06" arrivalSpeed="13.57" duration="102.00" routeLength="1186.43" waitingTime="0.00" waitingCount="0" stopTime="0.00" timeLoss="13.70" rerouteNo="0" devices="tripinfo_flow_z3.2 emissions_flow_z3.2" vType="Car" speedFactor="0.99" vaporized="">
        <emissions CO_abs="1393.11" CO2_abs="233504.26" HC_abs="9.28" PMx_abs="23.92" NOx_abs="81.35" fuel_abs="75699.02" electricity_abs="0.00"/>
    </tripinfo>
    <tripinfo id="flow_z3.1" depart="1.00" departLane="-E28_1" departPos="5.10" departSpeed="10.10" departDelay="0.17" arrival="109.00" arrivalLane="-E29_0" arrivalPos="266.06" arrivalSpeed="12.31" duration="108.00" routeLength="1186.43" waitingTime="0.00" waitingCount="0" stopTime="0.00" timeLoss="11.10" rerouteNo="0" devices="tripinfo_flow_z3.1 emissions_flow_z3.1" vType="Car" speedFactor="0.90" vaporized="">
        <emissions CO_abs="1138.93" CO2_abs="225520.14" HC_abs="7.61" PMx_abs="24.67" NOx_abs="78.66" fuel_abs="73110.88" electricity_abs="0.00"/>
    </tripinfo>
    <tripinfo id="flow_z3.3" depart="4.00" departLane="-E28_1" departPos="5.10" departSpeed="5.55" departDelay="1.50" arrival="110.00" arrivalLane="-E29_1" arrivalPos="266.06" arrivalSpeed="13.15" duration="106.00" routeLength="1186.43" waitingTime="0.00" waitingCount="0" stopTime="0.00" timeLoss="17.35" rerouteNo="0" devices="tripinfo_flow_z3.3 emissions_flow_z3.3" vType="Car" speedFactor="0.99" vaporized="">
        <emissions CO_abs="1460.44" CO2_abs="242806.09" HC_abs="9.71" PMx_abs="23.17" NOx_abs="83.86" fuel_abs="78714.44" electricity_abs="0.00"/>
    </tripinfo>
    <tripinfo id="flow_z3.4" depart="6.00" departLane="-E28_1" departPos="5.10" departSpeed="4.72" departDelay="2.67" arrival="112.00" arrivalLane="-E29_0" arrivalPos="266.06" arrivalSpeed="13.78" duration="106.00" routeLength="1186.43" waitingTime="0.00" waitingCount="0" stopTime="0.00" timeLoss="18.67" rerouteNo="0" devices="tripinfo_flow_z3.4 emissions_flow_z3.4" vType="Car" speedFactor="1.01" vaporized="">
        <emissions CO_abs="1576.08" CO2_abs="256290.26" HC_abs="10.48" PMx_abs="24.10" NOx_abs="88.64" fuel_abs="83085.79" electricity_abs="0.00"/>
    </tripinfo>
    <tripinfo id="flow_z3.6" depart="10.00" departLane="-E28_1" departPos="5.10" departSpeed="2.18" departDelay="5.00" arrival="114.00" arrivalLane="-E29_1" arrivalPos="266.06" arrivalSpeed="15.02" duration="104.00" routeLength="1186.43" waitingTime="0.00" waitingCount="0" stopTime="0.00" timeLoss="25.00" rerouteNo="0" devices="tripinfo_flow_z3.6 emissions_flow_z3.6" vType="Car" speedFactor="1.10" vaporized="">
        <emissions CO_abs="1761.54" CO2_abs="279249.98" HC_abs="11.72" PMx_abs="25.52" NOx_abs="95.74" fuel_abs="90528.86" electricity_abs="0.00"/>
    </tripinfo>
    <tripinfo id="flow_z3.5" depart="8.00" departLane="-E28_1" departPos="5.10" departSpeed="3.73" departDelay="3.84" arrival="116.00" arrivalLane="-E29_0" arrivalPos="266.06" arrivalSpeed="12.27" duration="108.00" routeLength="1186.43" waitingTime="0.00" waitingCount="0" stopTime="0.00" timeLoss="12.81" rerouteNo="0" devices="tripinfo_flow_z3.5 emissions_flow_z3.5" vType="Car" speedFactor="0.92" vaporized="">
        <emissions CO_abs="1204.22" CO2_abs="228401.87" HC_abs="8.03" PMx_abs="23.35" NOx_abs="78.56" fuel_abs="74044.93" electricity_abs="0.00"/>
    </tripinfo>
    <tripinfo id="21" depart="42.00" departLane="-E25_0" departPos="5.10" departSpeed="0.00" departDelay="0.00" arrival="122.00" arrivalLane="-E3_0" arrivalPos="483.20" arrivalSpeed="14.44" duration="80.00" routeLength="1079.36" waitingTime="0.00" waitingCount="0" stopTime="0.00" timeLoss="7.53" rerouteNo="0" devices="tripinfo_21 emissions_21" vType="Car" speedFactor="1.10" vaporized="">
        <emissions CO_abs="1335.52" CO2_abs="200949.60" HC_abs="8.94" PMx_abs="23.60" NOx_abs="71.06" fuel_abs="65145.17" electricity_abs="0.00"/>
    </tripinfo>
    <tripinfo id="30" depart="60.00" departLane="E9_0" departPos="5.10" departSpeed="0.00" departDelay="0.00" arrival="135.00" arrivalLane="E19_0" arrivalPos="283.20" arrivalSpeed="13.67" duration="75.00" routeLength="878.10" waitingTime="3.00" waitingCount="1" stopTime="0.00" timeLoss="15.72" rerouteNo="0" devices="tripinfo_30 emissions_30" vType="Car" speedFactor="1.08" vaporized="">
        <emissions CO_abs="1208.73" CO2_abs="201337.04" HC_abs="8.08" PMx_abs="20.08" NOx_abs="69.92" fuel_abs="65270.63" electricity_abs="0.00"/>
    </tripinfo>
    <tripinfo id="4" depart="8.00" departLane="-E39_0" departPos="5.10" departSpeed="0.00" departDelay="0.00" arrival="142.00" arrivalLane="-E10_0" arrivalPos="479.20" arrivalSpeed="11.81" duration="134.00" routeLength="1552.66" waitingTime="0.00" waitingCount="0" stopTime="0.00" timeLoss="12.27" rerouteNo="0" devices="tripinfo_4 emissions_4" vType="Car" speedFactor="0.93" vaporized="">
        <emissions CO_abs="1484.48" CO2_abs="288488.87" HC_abs="9.93" PMx_abs="32.03" NOx_abs="100.14" fuel_abs="93524.47" electricity_abs="0.00"/>
    </tripinfo>
    <tripinfo id="12" depart="24.00" departLane="E6_0" departPos="5.10" departSpeed="0.00" departDelay="0.00" arrival="147.00" arrivalLane="-E32_0" arrivalPos="266.06" arrivalSpeed="10.74" duration="123.00" routeLength="1239.52" waitingTime="0.00" waitingCount="0" stopTime="0.00" timeLoss="12.16" rerouteNo="0" devices="tripinfo_12 emissions_12" vType="Car" speedFactor="0.81" vaporized="">
        <emissions CO_abs="933.21" CO2_abs="238300.63" HC_abs="6.23" PMx_abs="25.32" NOx_abs="81.73" fuel_abs="77254.20" electricity_abs="0.00"/>
    </tripinfo>
    <tripinfo id="1" depart="2.00" departLane="-E29_0" departPos="5.10" departSpeed="0.00" departDelay="0.00" arrival="153.00" arrivalLane="-E24_0" arrivalPos="283.20" arrivalSpeed="13.21" duration="151.00" routeLength="1942.97" waitingTime="0.00" waitingCount="0" stopTime="0.00" timeLoss="15.09" rerouteNo="0" devices="tripinfo_1 emissions_1" vType="Car" speedFactor="1.04" vaporized="">
        <emissions CO_abs="2240.93" CO2_abs="363573.96" HC_abs="15.01" PMx_abs="42.10" NOx_abs="127.79" fuel_abs="117865.94" electricity_abs="0.00"/>
    </tripinfo>
    <tripinfo id="23" depart="46.00" departLane="-E16_0" departPos="5.10" departSpeed="0.00" departDelay="0.00" arrival="160.00" arrivalLane="-E29_0" arrivalPos="266.06" arrivalSpeed="14.36" duration="114.00" routeLength="1384.98" waitingTime="1.00" waitingCount="1" stopTime="0.00" timeLoss="18.08" rerouteNo="0" devices="tripinfo_23 emissions_23" vType="Car" speedFactor="1.07" vaporized="">
        <emissions CO_abs="1805.07" CO2_abs="297253.04" HC_abs="12.08" PMx_abs="31.71" NOx_abs="103.22" fuel_abs="96365.39" electricity_abs="0.00"/>
    </tripinfo>
    <tripinfo id="flow_z1.2" depart="2.00" departLane="-E1_0" departPos="5.10" departSpeed="7.75" departDelay="0.33" arrival="164.00" arrivalLane="E19_0" arrivalPos="283.20" arrivalSpeed="15.21" duration="162.00" routeLength="2181.19" waitingTime="0.00" waitingCount="0" stopTime="0.00" timeLoss="23.11" rerouteNo="0" devices="tripinfo_flow_z1.2 emissions_flow_z1.2" vType="Car" speedFactor="1.14" vaporized="">
        <emissions CO_abs="2710.10" CO2_abs="390800.74" HC_abs="18.14" PMx_abs="46.45" NOx_abs="140.53" fuel_abs="126692.58" electricity_abs="0.00"/>
    </tripinfo>
    <tripinfo id="flow_z1.0" depart="0.00" departLane="-E1_0" departPos="5.10" departSpeed="13.81" departDelay="0.00" arrival="168.00" arrivalLane="E19_0" arrivalPos="283.20" arrivalSpeed="12.54" duration="168.00" routeLength="2181.19" waitingTime="0.00" waitingCount="0" stopTime="0.00" timeLoss="9.23" rerouteNo="0" devices="tripinfo_flow_z1.0 emissions_flow_z1.0" vType="Car" speedFactor="0.99" vaporized="">
        <emissions CO_abs="2216.82" CO2_abs="355274.65" HC_abs="14.85" PMx_abs="43.64" NOx_abs="127.36" fuel_abs="115175.71" electricity_abs="0.00"/>
    </tripinfo>
    <tripinfo id="flow_z3.8" depart="15.00" departLane="-E28_1" departPos="5.10" departSpeed="0.86" departDelay="8.34" arrival="173.00" arrivalLane="-E29_0" arrivalPos="266.06" arrivalSpeed="13.95" duration="158.00" routeLength="1186.43" waitingTime="56.00" waitingCount="2" stopTime="0.00" timeLoss="76.57" rerouteNo="0" devices="tripinfo_flow_z3.8 emissions_flow_z3.8" vType="Car" speedFactor="1.07" vaporized="">
        <emissions CO_abs="1641.43" CO2_abs="355804.19" HC_abs="10.95" PMx_abs="26.30" NOx_abs="126.78" fuel_abs="115347.41" electricity_abs="0.00"/>
    </tripinfo>
    <tripinfo id="flow_z1.3" depart="4.00" departLane="-E1_0" departPos="5.10" departSpeed="8.02" departDelay="1.50" arrival="174.00" arrivalLane="E19_0" arrivalPos="283.20" arrivalSpeed="13.37" duration="170.00" routeLength="2181.19" waitingTime="0.00" waitingCount="0" stopTime="0.00" timeLoss="16.16" rerouteNo="0" devices="tripinfo_flow_z1.3 emissions_flow_z1.3" vType="Car" speedFactor="1.03" vaporized="">
        <emissions CO_abs="2396.65" CO2_abs="375177.62" HC_abs="16.02" PMx_abs="43.42" NOx_abs="133.89" fuel_abs="121627.85" electricity_abs="0.00"/>
    </tripinfo>
    <tripinfo id="flow_z1.1" depart="1.00" departLane="-E1_0" departPos="5.10" departSpeed="10.93" departDelay="0.17" arrival="177.00" arrivalLane="E19_0" arrivalPos="283.20" arrivalSpeed="12.67" duration="176.00" routeLength="2181.19" waitingTime="0.00" waitingCount="0" stopTime="0.00" timeLoss="10.38" rerouteNo="0" devices="tripinfo_flow_z1.1 emissions_flow_z1.1" vType="Car" speedFactor="0.96" vaporized="">
        <emissions CO_abs="1936.35" CO2_abs="352219.03" HC_abs="12.99" PMx_abs="44.96" NOx_abs="126.10" fuel_abs="114185.36" electricity_abs="0.00"/>
    </tripinfo>
    <tripinfo id="16" depart="32.00" departLane="E10_0" departPos="5.10" departSpeed="0.00" departDelay="0.00" arrival="177.00" arrivalLane="E7_0" arrivalPos="466.06" arrivalSpeed="14.32" duration="145.00" routeLength="1801.77" waitingTime="1.00" waitingCount="1" stopTime="0.00" timeLoss="18.58" rerouteNo="0" devices="tripinfo_16 emissions_16" vType="Car" speedFactor="1.05" vaporized="">
        <emissions CO_abs="2271.48" CO2_abs="369623.14" HC_abs="15.20" PMx_abs="40.36" NOx_abs="129.39" fuel_abs="119826.92" electricity_abs="0.00"/>
    </tripinfo>
    <tripinfo id="48" depart="96.00" departLane="E9_0" departPos="5.10" departSpeed="0.00" departDelay="0.00" arrival="177.00" arrivalLane="E10_0" arrivalPos="479.20" arrivalSpeed="8.33" duration="81.00" routeLength="772.65" waitingTime="0.00" waitingCount="0" stopTime="0.00" timeLoss="24.47" rerouteNo="0" devices="tripinfo_48 emissions_48" vType="Car" speedFactor="1.00" vaporized="">
        <emissions CO_abs="614.94" CO2_abs="171732.00" HC_abs="4.11" PMx_abs="18.09" NOx_abs="60.37" fuel_abs="55673.57" electricity_abs="0.00"/>
    </tripinfo>
    <tripinfo id="36" depart="72.00" departLane="E36_0" departPos="5.10" departSpeed="0.00" departDelay="0.00" arrival="178.00" arrivalLane="-E31_0" arrivalPos="279.20" arrivalSpeed="17.24" duration="106.00" routeLength="1568.07" waitingTime="0.00" waitingCount="0" stopTime="0.00" timeLoss="13.93" rerouteNo="0" devices="tripinfo_36 emissions_36" vType="Car" speedFactor="1.27" vaporized="">
        <emissions CO_abs="3008.22" CO2_abs="360669.73" HC_abs="20.12" PMx_abs="39.42" NOx_abs="130.28" fuel_abs="116923.91" electricity_abs="0.00"/>
    </tripinfo>
    <tripinfo id="flow_z1.4" depart="6.00" departLane="-E1_0" departPos="5.10" departSpeed="9.40" departDelay="2.67" arrival="178.00" arrivalLane="E19_1" arrivalPos="283.20" arrivalSpeed="12.90" duration="172.00" routeLength="2181.19" waitingTime="0.00" waitingCount="0" stopTime="0.00" timeLoss="14.43" rerouteNo="0" devices="tripinfo_flow_z1.4 emissions_flow_z1.4" vType="Car" speedFactor="1.00" vaporized="">
        <emissions CO_abs="2236.62" CO2_abs="368095.43" HC_abs="14.97" PMx_abs="44.57" NOx_abs="131.52" fuel_abs="119332.06" electricity_abs="0.00"/>
    </tripinfo>
    <tripinfo id="49" depart="98.00" departLane="E7_0" departPos="5.10" departSpeed="0.00" departDelay="0.00" arrival="183.00" arrivalLane="E34_0" arrivalPos="266.06" arrivalSpeed="8.33" duration="85.00" routeLength="1101.24" waitingTime="0.00" waitingCount="0" stopTime="0.00" timeLoss="13.52" rerouteNo="0" devices="tripinfo_49 emissions_49" vType="Car" speedFactor="1.13" vaporized="">
        <emissions CO_abs="1357.76" CO2_abs="216721.41" HC_abs="9.11" PMx_abs="25.83" NOx_abs="76.94" fuel_abs="70258.29" electricity_abs="0.00"/>
    </tripinfo>
    <tripinfo id="flow_z3.7" depart="13.00" departLane="-E28_1" departPos="5.10" departSpeed="3.08" departDelay="7.17" arrival="186.00" arrivalLane="-E29_0" arrivalPos="266.06" arrivalSpeed="12.16" duration="173.00" routeLength="1186.43" waitingTime="61.00" waitingCount="1" stopTime="0.00" timeLoss="76.01" rerouteNo="0" devices="tripinfo_flow_z3.7 emissions_flow_z3.7" vType="Car" speedFactor="0.90" vaporized="">
        <emissions CO_abs="1159.33" CO2_abs="342848.98" HC_abs="7.74" PMx_abs="25.90" NOx_abs="122.84" fuel_abs="111148.00" electricity_abs="0.00"/>
    </tripinfo>
    <tripinfo id="flow_z3.11" depart="23.00" departLane="-E28_1" departPos="5.10" departSpeed="5.86" departDelay="13.84" arrival="188.00" arrivalLane="-E29_1" arrivalPos="266.06" arrivalSpeed="14.50" duration="165.00" routeLength="1186.43" waitingTime="49.00" waitingCount="1" stopTime="0.00" timeLoss="81.82" rerouteNo="0" devices="tripinfo_flow_z3.11 emissions_flow_z3.11" vType="Car" speedFactor="1.06" vaporized="">
        <emissions CO_abs="1767.73" CO2_abs="367540.50" HC_abs="11.74" PMx_abs="24.45" NOx_abs="129.65" fuel_abs="119151.96" electricity_abs="0.00"/>
    </tripinfo>
    <tripinfo id="flow_z3.13" depart="27.00" departLane="-E28_1" departPos="5.10" departSpeed="6.97" departDelay="16.17" arrival="189.00" arrivalLane="-E29_0" arrivalPos="266.06" arrivalSpeed="11.59" duration="162.00" routeLength="1186.43" waitingTime="50.00" waitingCount="1" stopTime="0.00" timeLoss="65.30" rerouteNo="0" devices="tripinfo_flow_z3.13 emissions_flow_z3.13" vType="Car" speedFactor="0.90" vaporized="">
        <emissions CO_abs="1200.93" CO2_abs="317311.28" HC_abs="8.00" PMx_abs="23.84" NOx_abs="113.39" fuel_abs="102868.73" electricity_abs="0.00"/>
    </tripinfo>
    <tripinfo id="flow_z2.1" depart="1.00" departLane="-E18_0" departPos="5.10" departSpeed="9.58" departDelay="0.17" arrival="191.00" arrivalLane="-E15_0" arrivalPos="479.20" arrivalSpeed="14.70" duration="190.00" routeLength="1988.38" waitingTime="36.00" waitingCount="1" stopTime="0.00" timeLoss="53.39" rerouteNo="0" devices="tripinfo_flow_z2.1 emissions_flow_z2.1" vType="Car" speedFactor="1.06" vaporized="">
        <emissions CO_abs="2435.46" CO2_abs="431681.95" HC_abs="16.29" PMx_abs="42.86" NOx_abs="155.13" fuel_abs="139946.06" electricity_abs="0.00"/>
    </tripinfo>
    <tripinfo id="flow_z3.9" depart="19.00" departLane="-E28_1" departPos="5.10" departSpeed="5.82" departDelay="11.50" arrival="193.00" arrivalLane="-E29_1" arrivalPos="266.06" arrivalSpeed="16.74" duration="174.00" routeLength="1186.43" waitingTime="55.00" waitingCount="2" stopTime="0.00" timeLoss="100.88" rerouteNo="0" devices="tripinfo_flow_z3.9 emissions_flow_z3.9" vType="Car" speedFactor="1.21" vaporized="">
        <emissions CO_abs="1790.36" CO2_abs="394129.43" HC_abs="11.91" PMx_abs="26.85" NOx_abs="139.72" fuel_abs="127771.93" electricity_abs="0.00"/>
    </tripinfo>
    <tripinfo id="flow_z3.14" depart="29.00" departLane="-E28_1" departPos="5.10" departSpeed="8.13" departDelay="17.34" arrival="193.00" arrivalLane="-E29_0" arrivalPos="266.06" arrivalSpeed="12.33" duration="164.00" routeLength="1186.43" waitingTime="43.00" waitingCount="1" stopTime="0.00" timeLoss="70.53" rerouteNo="0" devices="tripinfo_flow_z3.14 emissions_flow_z3.14" vType="Car" speedFactor="0.93" vaporized="">
        <emissions CO_abs="1389.54" CO2_abs="335386.14" HC_abs="9.25" PMx_abs="23.99" NOx_abs="117.33" fuel_abs="108728.06" electricity_abs="0.00"/>
    </tripinfo>
    <tripinfo id="18" depart="36.00" departLane="E32_0" departPos="5.10" departSpeed="0.00" departDelay="0.00" arrival="194.00" arrivalLane="E17_0" arrivalPos="465.43" arrivalSpeed="13.37" duration="158.00" routeLength="1839.24" waitingTime="0.00" waitingCount="0" stopTime="0.00" timeLoss="16.98" rerouteNo="0" devices="tripinfo_18 emissions_18" vType="Car" speedFactor="0.96" vaporized="">
        <emissions CO_abs="2073.44" CO2_abs="382724.16" HC_abs="13.86" PMx_abs="41.57" NOx_abs="132.21" fuel_abs="124074.23" electricity_abs="0.00"/>
    </tripinfo>
    <tripinfo id="flow_z3.17" depart="35.00" departLane="-E28_1" departPos="5.10" departSpeed="2.58" departDelay="20.84" arrival="195.00" arrivalLane="-E29_0" arrivalPos="266.06" arrivalSpeed="12.08" duration="160.00" routeLength="1186.43" waitingTime="41.00" waitingCount="1" stopTime="0.00" timeLoss="68.85" rerouteNo="0" devices="tripinfo_flow_z3.17 emissions_flow_z3.17" vType="Car" speedFactor="0.96" vaporized="">
        <emissions CO_abs="1422.25" CO2_abs="343349.34" HC_abs="9.46" PMx_abs="25.08" NOx_abs="119.93" fuel_abs="111309.58" electricity_abs="0.00"/>
    </tripinfo>
    <tripinfo id="flow_z2.0" depart="0.00" departLane="-E18_0" departPos="5.10" departSpeed="12.79" departDelay="0.00" arrival="196.00" arrivalLane="-E15_0" arrivalPos="479.20" arrivalSpeed="11.67" duration="196.00" routeLength="1988.38" waitingTime="20.00" waitingCount="1" stopTime="0.00" timeLoss="39.11" rerouteNo="0" devices="tripinfo_flow_z2.0 emissions_flow_z2.0" vType="Car" speedFactor="0.92" vaporized="">
        <emissions CO_abs="1932.96" CO2_abs="405730.11" HC_abs="12.92" PMx_abs="40.56" NOx_abs="142.45" fuel_abs="131532.82" electricity_abs="0.00"/>
    </tripinfo>
    <tripinfo id="flow_z2.3" depart="4.00" departLane="-E18_0" departPos="5.10" departSpeed="5.54" departDelay="1.50" arrival="197.00" arrivalLane="-E15_1" arrivalPos="479.20" arrivalSpeed="13.91" duration="193.00" routeLength="1984.04" waitingTime="21.00" waitingCount="2" stopTime="0.00" timeLoss="54.54" rerouteNo="0" devices="tripinfo_flow_z2.3 emissions_flow_z2.3" vType="Car" speedFactor="1.05" vaporized="">
        <emissions CO_abs="2784.23" CO2_abs="466333.35" HC_abs="18.52" PMx_abs="39.37" NOx_abs="163.60" fuel_abs="151178.92" electricity_abs="0.00"/>
    </tripinfo>
    <tripinfo id="flow_z3.10" depart="21.00" departLane="-E28_1" departPos="5.10" departSpeed="6.01" departDelay="12.67" arrival="197.00" arrivalLane="-E29_0" arrivalPos="266.06" arrivalSpeed="14.15" duration="176.00" routeLength="1186.43" waitingTime="54.00" waitingCount="1" stopTime="0.00" timeLoss="91.16" rerouteNo="0" devices="tripinfo_flow_z3.10 emissions_flow_z3.10" vType="Car" speedFactor="1.02" vaporized="">
        <emissions CO_abs="1603.35" CO2_abs="379024.91" HC_abs="10.65" PMx_abs="24.63" NOx_abs="132.89" fuel_abs="122875.21" electricity_abs="0.00"/>
    </tripinfo>
    <tripinfo id="flow_z2.4" depart="6.00" departLane="-E18_0" departPos="5.10" departSpeed="5.64" departDelay="2.67" arrival="199.00" arrivalLane="-E15_1" arrivalPos="479.20" arrivalSpeed="14.10" duration="193.00" routeLength="1988.38" waitingTime="20.00" waitingCount="2" stopTime="0.00" timeLoss="55.27" rerouteNo="0" devices="tripinfo_flow_z2.4 emissions_flow_z2.4" vType="Car" speedFactor="1.05" vaporized="">
        <emissions CO_abs="2768.91" CO2_abs="476732.76" HC_abs="18.45" PMx_abs="42.68" NOx_abs="166.64" fuel_abs="154550.21" electricity_abs="0.00"/>
    </tripinfo>
    <tripinfo id="flow_z2.5" depart="8.00" departLane="-E18_0" departPos="5.10" departSpeed="5.48" departDelay="3.84" arrival="200.00" arrivalLane="-E15_1" arrivalPos="479.20" arrivalSpeed="13.58" duration="192.00" routeLength="1984.04" waitingTime="20.00" waitingCount="2" stopTime="0.00" timeLoss="56.04" rerouteNo="0" devices="tripinfo_flow_z2.5 emissions_flow_z2.5" vType="Car" speedFactor="1.06" vaporized="">
        <emissions CO_abs="2692.03" CO2_abs="468831.35" HC_abs="17.95" PMx_abs="43.32" NOx_abs="165.15" fuel_abs="151988.82" electricity_abs="0.00"/>
    </tripinfo>
    <tripinfo id="54" depart="108.00" departLane="-E6_0" departPos="5.10" departSpeed="0.00" departDelay="0.00" arrival="201.00" arrivalLane="E6_1" arrivalPos="466.06" arrivalSpeed="7.13" duration="93.00" routeLength="1043.03" waitingTime="0.00" waitingCount="0" stopTime="0.00" timeLoss="14.66" rerouteNo="0" devices="tripinfo_54 emissions_54" vType="Car" speedFactor="0.98" vaporized="">
        <emissions CO_abs="1235.63" CO2_abs="227191.26" HC_abs="8.23" PMx_abs="21.69" NOx_abs="77.00" fuel_abs="73652.25" electricity_abs="0.00"/>
    </tripinfo>
    <tripinfo id="flow_z2.2" depart="2.00" departLane="-E18_0" departPos="5.10" departSpeed="5.27" departDelay="0.33" arrival="201.00" arrivalLane="-E15_0" arrivalPos="479.20" arrivalSpeed="7.66" duration="199.00" routeLength="1988.38" waitingTime="19.00" waitingCount="2" stopTime="0.00" timeLoss="55.53" rerouteNo="0" devices="tripinfo_flow_z2.2 emissions_flow_z2.2" vType="Car" speedFactor="1.01" vaporized="">
        <emissions CO_abs="2663.01" CO2_abs="479677.38" HC_abs="17.73" PMx_abs="41.38" NOx_abs="166.16" fuel_abs="155504.93" electricity_abs="0.00"/>
    </tripinfo>
    <tripinfo id="3" depart="6.00" departLane="E37_0" departPos="5.10" departSpeed="0.00" departDelay="0.00" arrival="202.00" arrivalLane="-E14_1" arrivalPos="279.20" arrivalSpeed="14.42" duration="196.00" routeLength="1837.99" waitingTime="47.00" waitingCount="1" stopTime="0.00" timeLoss="67.21" rerouteNo="0" devices="tripinfo_3 emissions_3" vType="Car" speedFactor="1.06" vaporized="">
        <emissions CO_abs="2351.63" CO2_abs="459661.38" HC_abs="15.74" PMx_abs="42.87" NOx_abs="164.62" fuel_abs="149016.64" electricity_abs="0.00"/>
    </tripinfo>
    <tripinfo id="flow_z3.12" depart="25.00" departLane="-E28_1" departPos="5.10" departSpeed="5.78" departDelay="15.00" arrival="202.00" arrivalLane="-E29_0" arrivalPos="266.06" arrivalSpeed="12.22" duration="177.00" routeLength="1186.43" waitingTime="50.00" waitingCount="1" stopTime="0.00" timeLoss="84.25" rerouteNo="0" devices="tripinfo_flow_z3.12 emissions_flow_z3.12" vType="Car" speedFactor="0.94" vaporized="">
        <emissions CO_abs="1504.25" CO2_abs="372617.93" HC_abs="9.99" PMx_abs="24.59" NOx_abs="128.69" fuel_abs="120798.03" electricity_abs="0.00"/>
    </tripinfo>
    <tripinfo id="flow_z3.15" depart="30.00" departLane="-E28_1" departPos="5.10" departSpeed="4.10" departDelay="17.51" arrival="202.00" arrivalLane="-E29_1" arrivalPos="266.06" arrivalSpeed="14.06" duration="172.00" routeLength="1186.43" waitingTime="45.00" waitingCount="1" stopTime="0.00" timeLoss="90.14" rerouteNo="0" devices="tripinfo_flow_z3.15 emissions_flow_z3.15" vType="Car" speedFactor="1.07" vaporized="">
        <emissions CO_abs="1727.43" CO2_abs="382800.01" HC_abs="11.46" PMx_abs="24.14" NOx_abs="132.29" fuel_abs="124098.72" electricity_abs="0.00"/>
    </tripinfo>
    <tripinfo id="flow_z2.6" depart="10.00" departLane="-E18_0" departPos="5.10" departSpeed="6.09" departDelay="5.00" arrival="203.00" arrivalLane="-E15_0" arrivalPos="479.20" arrivalSpeed="8.63" duration="193.00" routeLength="1988.38" waitingTime="17.00" waitingCount="1" stopTime="0.00" timeLoss="44.35" rerouteNo="0" devices="tripinfo_flow_z2.6 emissions_flow_z2.6" vType="Car" speedFactor="0.97" vaporized="">
        <emissions CO_abs="2158.42" CO2_abs="422947.89" HC_abs="14.41" PMx_abs="41.05" NOx_abs="147.24" fuel_abs="137114.28" electricity_abs="0.00"/>
    </tripinfo>
    <tripinfo id="flow_z2.8" depart="14.00" departLane="-E18_0" departPos="5.10" departSpeed="5.60" departDelay="7.34" arrival="203.00" arrivalLane="-E15_1" arrivalPos="479.20" arrivalSpeed="13.72" duration="189.00" routeLength="1984.04" waitingTime="13.00" waitingCount="1" stopTime="0.00" timeLoss="45.71" rerouteNo="0" devices="tripinfo_flow_z2.8 emissions_flow_z2.8" vType="Car" speedFactor="1.01" vaporized="">
        <emissions CO_abs="2367.69" CO2_abs="430903.87" HC_abs="15.79" PMx_abs="40.71" NOx_abs="150.32" fuel_abs="139693.43" electricity_abs="0.00"/>
    </tripinfo>
    <tripinfo id="flow_z3.23" depart="48.00" departLane="-E28_1" departPos="5.10" departSpeed="5.07" departDelay="28.84" arrival="204.00" arrivalLane="-E29_0" arrivalPos="266.06" arrivalSpeed="13.03" duration="156.00" routeLength="1186.43" waitingTime="32.00" waitingCount="1" stopTime="0.00" timeLoss="71.70" rerouteNo="0" devices="tripinfo_flow_z3.23 emissions_flow_z3.23" vType="Car" speedFactor="1.03" vaporized="">
        <emissions CO_abs="1616.19" CO2_abs="349310.92" HC_abs="10.74" PMx_abs="24.92" NOx_abs="119.83" fuel_abs="113241.95" electricity_abs="0.00"/>
    </tripinfo>
    <tripinfo id="flow_z2.7" depart="12.00" departLane="-E18_0" departPos="5.10" departSpeed="5.93" departDelay="6.17" arrival="206.00" arrivalLane="-E15_0" arrivalPos="479.20" arrivalSpeed="12.02" duration="194.00" routeLength="1984.04" waitingTime="13.00" waitingCount="1" stopTime="0.00" timeLoss="39.16" rerouteNo="0" devices="tripinfo_flow_z2.7 emissions_flow_z2.7" vType="Car" speedFactor="0.93" vaporized="">
        <emissions CO_abs="1961.73" CO2_abs="410427.07" HC_abs="13.11" PMx_abs="41.50" NOx_abs="143.47" fuel_abs="133055.40" electricity_abs="0.00"/>
    </tripinfo>
    <tripinfo id="flow_z2.10" depart="18.00" departLane="-E18_0" departPos="5.10" departSpeed="2.16" departDelay="9.67" arrival="208.00" arrivalLane="-E15_0" arrivalPos="479.20" arrivalSpeed="12.87" duration="190.00" routeLength="1988.38" waitingTime="11.00" waitingCount="1" stopTime="0.00" timeLoss="40.75" rerouteNo="0" devices="tripinfo_flow_z2.10 emissions_flow_z2.10" vType="Car" speedFactor="0.97" vaporized="">
        <emissions CO_abs="2001.93" CO2_abs="414701.64" HC_abs="13.40" PMx_abs="43.41" NOx_abs="144.72" fuel_abs="134441.17" electricity_abs="0.00"/>
    </tripinfo>
    <tripinfo id="flow_z2.11" depart="21.00" departLane="-E18_0" departPos="5.10" departSpeed="3.83" departDelay="11.84" arrival="208.00" arrivalLane="-E15_1" arrivalPos="479.20" arrivalSpeed="14.53" duration="187.00" routeLength="1984.04" waitingTime="12.00" waitingCount="1" stopTime="0.00" timeLoss="56.38" rerouteNo="0" devices="tripinfo_flow_z2.11 emissions_flow_z2.11" vType="Car" speedFactor="1.10" vaporized="">
        <emissions CO_abs="2596.76" CO2_abs="439468.42" HC_abs="17.35" PMx_abs="42.25" NOx_abs="153.90" fuel_abs="142469.76" electricity_abs="0.00"/>
    </tripinfo>
    <tripinfo id="flow_z2.9" depart="16.00" departLane="-E18_0" departPos="5.10" departSpeed="3.89" departDelay="8.50" arrival="210.00" arrivalLane="-E15_0" arrivalPos="479.20" arrivalSpeed="14.00" duration="194.00" routeLength="1984.04" waitingTime="14.00" waitingCount="2" stopTime="0.00" timeLoss="59.84" rerouteNo="0" devices="tripinfo_flow_z2.9 emissions_flow_z2.9" vType="Car" speedFactor="1.08" vaporized="">
        <emissions CO_abs="2554.43" CO2_abs="459040.62" HC_abs="17.04" PMx_abs="42.11" NOx_abs="160.38" fuel_abs="148814.75" electricity_abs="0.00"/>
    </tripinfo>