<?xml version="1.0" encoding="UTF-8"?>

<!-- generated on 2026-05-30T17:27:15.755972+00:00 by Eclipse SUMO sumo 1.26.0
<sumoConfiguration xmlns:xsi="http://www.w3.org/2001/XMLSchema-instance" xsi:noNamespaceSchemaLocation="http://sumo.dlr.de/xsd/sumoConfiguration.xsd">

    <input>
        <net-file value="manhattan.net.xml"/>
        <route-files value="routes.rou.xml,background.rou.xml"/>
        <additional-files value="mosaic_types.add.xml"/>
    </input>

    <output>
        <tripinfo-output value="/home/netsim/opt/tpnpr/tripinfo.xml"/>
    </output>

    <time>
        <begin value="0"/>
        <end value="3600"/>
        <step-length value="1.00"/>
    </time>

    <processing>
        <ignore-route-errors value="true"/>
        <time-to-teleport value="0"/>
    </processing>

    <report>
        <verbose value="true"/>
        <no-step-log value="true"/>
    </report>

    <emissions>
        <device.emissions.probability value="1.0"/>
    </emissions>

    <traci_server>
        <remote-port value="40077"/>
    </traci_server>

    <random_number>
        <seed value="100000"/>
    </random_number>

</sumoConfiguration>
-->

<tripinfos xmlns:xsi="http://www.w3.org/2001/XMLSchema-instance" xsi:noNamespaceSchemaLocation="http://sumo.dlr.de/xsd/tripinfo_file.xsd">
    <tripinfo id="13" depart="26.00" departLane="-E15_0" departPos="5.10" departSpeed="0.00" departDelay="0.00" arrival="64.00" arrivalLane="-E15_0" arrivalPos="479.20" arrivalSpeed="14.54" duration="38.00" routeLength="474.10" waitingTime="0.00" waitingCount="0" stopTime="0.00" timeLoss="5.26" rerouteNo="0" devices="tripinfo_13 emissions_13" vType="Car" speedFactor="1.06" vaporized="">
        <emissions CO_abs="623.73" CO2_abs="106235.53" HC_abs="4.17" PMx_abs="11.46" NOx_abs="36.52" fuel_abs="34440.08" electricity_abs="0.00"/>
    </tripinfo>
    <tripinfo id="22" depart="44.00" departLane="-E14_0" departPos="5.10" departSpeed="0.00" departDelay="0.00" arrival="88.00" arrivalLane="-E25_0" arrivalPos="279.20" arrivalSpeed="13.77" duration="44.00" routeLength="574.10" waitingTime="0.00" waitingCount="0" stopTime="0.00" timeLoss="5.37" rerouteNo="0" devices="tripinfo_22 emissions_22" vType="Car" speedFactor="1.08" vaporized="">
        <emissions CO_abs="774.99" CO2_abs="122112.22" HC_abs="5.18" PMx_abs="13.30" NOx_abs="42.37" fuel_abs="39587.07" electricity_abs="0.00"/>
    </tripinfo>
    <tripinfo id="flow_z3.0" depart="0.00" departLane="-E28_1" departPos="5.10" departSpeed="12.68" departDelay="0.00" arrival="103.00" arrivalLane="-E29_0" arrivalPos="266.06" arrivalSpeed="11.83" duration="103.00" routeLength="1186.43" waitingTime="0.00" waitingCount="0" stopTime="0.00" timeLoss="7.58" rerouteNo="0" devices="tripinfo_flow_z3.0 emissions_flow_z3.0" vType="Car" speedFactor="0.91" vaporized="">
        <emissions CO_abs="966.90" CO2_abs="196052.26" HC_abs="6.48" PMx_abs="23.47" NOx_abs="69.09" fuel_abs="63557.87" electricity_abs="0.00"/>
    </tripinfo>
    <tripinfo id="flow_z3.2" depart="2.00" departLane="-E28_1" departPos="5.10" departSpeed="5.68" departDelay="0.33" arrival="104.00" arrivalLane="-E29_1" arrivalPos="266.06" arrivalSpeed="13.31" duration="102.00" routeLength="1186.43" waitingTime="0.00" waitingCount="0" stopTime="0.00" timeLoss="13.48" rerouteNo="0" devices="tripinfo_flow_z3.2 emissions_flow_z3.2" vType="Car" speedFactor="0.99" vaporized="">
        <emissions CO_abs="1374.60" CO2_abs="236212.32" HC_abs="9.17" PMx_abs="24.76" NOx_abs="82.41" fuel_abs="76576.98" electricity_abs="0.00"/>
    </tripinfo>
    <tripinfo id="flow_z3.1" depart="1.00" departLane="-E28_1" departPos="5.10" departSpeed="10.10" departDelay="0.17" arrival="109.00" arrivalLane="-E29_0" arrivalPos="266.06" arrivalSpeed="12.12" duration="108.00" routeLength="1186.43" waitingTime="0.00" waitingCount="0" stopTime="0.00" timeLoss="11.18" rerouteNo="0" devices="tripinfo_flow_z3.1 emissions_flow_z3.1" vType="Car" speedFactor="0.90" vaporized="">
        <emissions CO_abs="1146.58" CO2_abs="226532.67" HC_abs="7.65" PMx_abs="24.55" NOx_abs="78.98" fuel_abs="73439.13" electricity_abs="0.00"/>
    </tripinfo>
    <tripinfo id="flow_z3.3" depart="4.00" departLane="-E28_1" departPos="5.10" departSpeed="5.55" departDelay="1.50" arrival="109.00" arrivalLane="-E29_1" arrivalPos="266.06" arrivalSpeed="13.22" duration="105.00" routeLength="1186.43" waitingTime="0.00" waitingCount="0" stopTime="0.00" timeLoss="17.52" rerouteNo="0" devices="tripinfo_flow_z3.3 emissions_flow_z3.3" vType="Car" speedFactor="0.99" vaporized="">
        <emissions CO_abs="1397.82" CO2_abs="241406.19" HC_abs="9.31" PMx_abs="24.02" NOx_abs="83.48" fuel_abs="78260.69" electricity_abs="0.00"/>
    </tripinfo>
    <tripinfo id="flow_z3.4" depart="6.00" departLane="-E28_1" departPos="5.10" departSpeed="4.72" departDelay="2.67" arrival="111.00" arrivalLane="-E29_0" arrivalPos="266.06" arrivalSpeed="12.74" duration="105.00" routeLength="1186.43" waitingTime="0.00" waitingCount="0" stopTime="0.00" timeLoss="18.41" rerouteNo="0" devices="tripinfo_flow_z3.4 emissions_flow_z3.4" vType="Car" speedFactor="1.01" vaporized="">
        <emissions CO_abs="1522.42" CO2_abs="251273.55" HC_abs="10.13" PMx_abs="24.04" NOx_abs="86.88" fuel_abs="81459.47" electricity_abs="0.00"/>
    </tripinfo>
    <tripinfo id="flow_z3.6" depart="10.00" departLane="-E28_1" departPos="5.10" departSpeed="2.18" departDelay="5.00" arrival="114.00" arrivalLane="-E29_1" arrivalPos="266.06" arrivalSpeed="14.11" duration="104.00" routeLength="1186.43" waitingTime="0.00" waitingCount="0" stopTime="0.00" timeLoss="25.33" rerouteNo="0" devices="tripinfo_flow_z3.6 emissions_flow_z3.6" vType="Car" speedFactor="1.10" vaporized="">
        <emissions CO_abs="1710.40" CO2_abs="276577.76" HC_abs="11.38" PMx_abs="25.44" NOx_abs="94.83" fuel_abs="89662.60" electricity_abs="0.00"/>
    </tripinfo>
    <tripinfo id="flow_z3.5" depart="8.00" departLane="-E28_1" departPos="5.10" departSpeed="3.73" departDelay="3.84" arrival="116.00" arrivalLane="-E29_0" arrivalPos="266.06" arrivalSpeed="12.22" duration="108.00" routeLength="1186.43" waitingTime="0.00" waitingCount="0" stopTime="0.00" timeLoss="12.75" rerouteNo="0" devices="tripinfo_flow_z3.5 emissions_flow_z3.5" vType="Car" speedFactor="0.92" vaporized="">
        <emissions CO_abs="1218.07" CO2_abs="230357.31" HC_abs="8.13" PMx_abs="23.82" NOx_abs="79.40" fuel_abs="74678.87" electricity_abs="0.00"/>
    </tripinfo>
    <tripinfo id="21" depart="42.00" departLane="-E25_0" departPos="5.10" departSpeed="0.00" departDelay="0.00" arrival="121.00" arrivalLane="-E3_0" arrivalPos="483.20" arrivalSpeed="14.86" duration="79.00" routeLength="1079.36" waitingTime="0.00" waitingCount="0" stopTime="0.00" timeLoss="7.43" rerouteNo="0" devices="tripinfo_21 emissions_21" vType="Car" speedFactor="1.10" vaporized="">
        <emissions CO_abs="1345.62" CO2_abs="201735.78" HC_abs="9.01" PMx_abs="23.62" NOx_abs="71.35" fuel_abs="65400.04" electricity_abs="0.00"/>
    </tripinfo>
    <tripinfo id="30" depart="60.00" departLane="E9_0" departPos="5.10" departSpeed="0.00" departDelay="0.00" arrival="135.00" arrivalLane="E19_0" arrivalPos="283.20" arrivalSpeed="14.73" duration="75.00" routeLength="878.10" waitingTime="4.00" waitingCount="1" stopTime="0.00" timeLoss="16.23" rerouteNo="0" devices="tripinfo_30 emissions_30" vType="Car" speedFactor="1.08" vaporized="">
        <emissions CO_abs="1219.69" CO2_abs="202279.73" HC_abs="8.15" PMx_abs="19.88" NOx_abs="69.75" fuel_abs="65576.23" electricity_abs="0.00"/>
    </tripinfo>
    <tripinfo id="4" depart="8.00" departLane="-E39_0" departPos="5.10" departSpeed="0.00" departDelay="0.00" arrival="142.00" arrivalLane="-E10_0" arrivalPos="479.20" arrivalSpeed="11.81" duration="134.00" routeLength="1552.66" waitingTime="0.00" waitingCount="0" stopTime="0.00" timeLoss="12.27" rerouteNo="0" devices="tripinfo_4 emissions_4" vType="Car" speedFactor="0.93" vaporized="">
        <emissions CO_abs="1484.48" CO2_abs="288488.87" HC_abs="9.93" PMx_abs="32.03" NOx_abs="100.14" fuel_abs="93524.47" electricity_abs="0.00"/>
    </tripinfo>
    <tripinfo id="12" depart="24.00" departLane="E6_0" departPos="5.10" departSpeed="0.00" departDelay="0.00" arrival="147.00" arrivalLane="-E32_0" arrivalPos="266.06" arrivalSpeed="10.98" duration="123.00" routeLength="1239.52" waitingTime="0.00" waitingCount="0" stopTime="0.00" timeLoss="11.68" rerouteNo="0" devices="tripinfo_12 emissions_12" vType="Car" speedFactor="0.81" vaporized="">
        <emissions CO_abs="960.78" CO2_abs="241837.63" HC_abs="6.42" PMx_abs="25.67" NOx_abs="83.15" fuel_abs="78400.86" electricity_abs="0.00"/>
    </tripinfo>
    <tripinfo id="1" depart="2.00" departLane="-E29_0" departPos="5.10" departSpeed="0.00" departDelay="0.00" arrival="153.00" arrivalLane="-E24_0" arrivalPos="283.20" arrivalSpeed="13.16" duration="151.00" routeLength="1942.97" waitingTime="0.00" waitingCount="0" stopTime="0.00" timeLoss="15.08" rerouteNo="0" devices="tripinfo_1 emissions_1" vType="Car" speedFactor="1.04" vaporized="">
        <emissions CO_abs="2188.49" CO2_abs="355005.56" HC_abs="14.66" PMx_abs="40.86" NOx_abs="124.65" fuel_abs="115088.16" electricity_abs="0.00"/>
    </tripinfo>
    <tripinfo id="23" depart="46.00" departLane="-E16_0" departPos="5.10" departSpeed="0.00" departDelay="0.00" arrival="160.00" arrivalLane="-E29_0" arrivalPos="266.06" arrivalSpeed="13.69" duration="114.00" routeLength="1384.98" waitingTime="1.00" waitingCount="1" stopTime="0.00" timeLoss="17.98" rerouteNo="0" devices="tripinfo_23 emissions_23" vType="Car" speedFactor="1.07" vaporized="">
        <emissions CO_abs="1781.25" CO2_abs="294444.71" HC_abs="11.93" PMx_abs="31.70" NOx_abs="102.33" fuel_abs="95454.99" electricity_abs="0.00"/>
    </tripinfo>
    <tripinfo id="48" depart="96.00" departLane="E9_0" departPos="5.10" departSpeed="0.00" departDelay="0.00" arrival="160.00" arrivalLane="E10_0" arrivalPos="479.20" arrivalSpeed="12.68" duration="64.00" routeLength="772.65" waitingTime="0.00" waitingCount="0" stopTime="0.00" timeLoss="7.47" rerouteNo="0" devices="tripinfo_48 emissions_48" vType="Car" speedFactor="1.00" vaporized="">
        <emissions CO_abs="932.35" CO2_abs="165063.59" HC_abs="6.23" PMx_abs="17.13" NOx_abs="56.35" fuel_abs="53511.34" electricity_abs="0.00"/>
    </tripinfo>
    <tripinfo id="flow_z1.2" depart="2.00" departLane="-E1_0" departPos="5.10" departSpeed="7.75" departDelay="0.33" arrival="164.00" arrivalLane="E19_0" arrivalPos="283.20" arrivalSpeed="15.51" duration="162.00" routeLength="2181.19" waitingTime="0.00" waitingCount="0" stopTime="0.00" timeLoss="23.08" rerouteNo="0" devices="tripinfo_flow_z1.2 emissions_flow_z1.2" vType="Car" speedFactor="1.14" vaporized="">
        <emissions CO_abs="2764.07" CO2_abs="395942.31" HC_abs="18.50" PMx_abs="46.58" NOx_abs="142.28" fuel_abs="128359.38" electricity_abs="0.00"/>
    </tripinfo>
    <tripinfo id="flow_z1.0" depart="0.00" departLane="-E1_0" departPos="5.10" departSpeed="13.81" departDelay="0.00" arrival="168.00" arrivalLane="E19_0" arrivalPos="283.20" arrivalSpeed="12.53" duration="168.00" routeLength="2181.19" waitingTime="0.00" waitingCount="0" stopTime="0.00" timeLoss="9.12" rerouteNo="0" devices="tripinfo_flow_z1.0 emissions_flow_z1.0" vType="Car" speedFactor="0.99" vaporized="">
        <emissions CO_abs="1874.88" CO2_abs="326535.61" HC_abs="12.61" PMx_abs="43.87" NOx_abs="117.66" fuel_abs="105859.13" electricity_abs="0.00"/>
    </tripinfo>
    <tripinfo id="flow_z3.8" depart="15.00" departLane="-E28_1" departPos="5.10" departSpeed="0.86" departDelay="8.34" arrival="172.00" arrivalLane="-E29_0" arrivalPos="266.06" arrivalSpeed="14.84" duration="157.00" routeLength="1186.43" waitingTime="56.00" waitingCount="2" stopTime="0.00" timeLoss="75.46" rerouteNo="0" devices="tripinfo_flow_z3.8 emissions_flow_z3.8" vType="Car" speedFactor="1.07" vaporized="">
        <emissions CO_abs="1612.93" CO2_abs="357187.08" HC_abs="10.78" PMx_abs="28.25" NOx_abs="127.84" fuel_abs="115795.84" electricity_abs="0.00"/>
    </tripinfo>
    <tripinfo id="flow_z1.3" depart="4.00" departLane="-E1_0" departPos="5.10" departSpeed="8.02" departDelay="1.50" arrival="175.00" arrivalLane="E19_0" arrivalPos="283.20" arrivalSpeed="13.15" duration="171.00" routeLength="2181.19" waitingTime="0.00" waitingCount="0" stopTime="0.00" timeLoss="16.35" rerouteNo="0" devices="tripinfo_flow_z1.3 emissions_flow_z1.3" vType="Car" speedFactor="1.03" vaporized="">
        <emissions CO_abs="2445.87" CO2_abs="386393.01" HC_abs="16.36" PMx_abs="45.36" NOx_abs="138.01" fuel_abs="125263.78" electricity_abs="0.00"/>
    </tripinfo>
    <tripinfo id="flow_z1.1" depart="1.00" departLane="-E1_0" departPos="5.10" departSpeed="10.93" departDelay="0.17" arrival="176.00" arrivalLane="E19_0" arrivalPos="283.20" arrivalSpeed="13.13" duration="175.00" routeLength="2181.19" waitingTime="0.00" waitingCount="0" stopTime="0.00" timeLoss="9.84" rerouteNo="0" devices="tripinfo_flow_z1.1 emissions_flow_z1.1" vType="Car" speedFactor="0.96" vaporized="">
        <emissions CO_abs="1952.46" CO2_abs="354444.68" HC_abs="13.10" PMx_abs="45.43" NOx_abs="126.99" fuel_abs="114906.90" electricity_abs="0.00"/>
    </tripinfo>
    <tripinfo id="16" depart="32.00" departLane="E10_0" departPos="5.10" departSpeed="0.00" departDelay="0.00" arrival="177.00" arrivalLane="E7_0" arrivalPos="466.06" arrivalSpeed="14.38" duration="145.00" routeLength="1801.77" waitingTime="1.00" waitingCount="1" stopTime="0.00" timeLoss="18.78" rerouteNo="0" devices="tripinfo_16 emissions_16" vType="Car" speedFactor="1.05" vaporized="">
        <emissions CO_abs="2225.24" CO2_abs="373008.92" HC_abs="14.89" PMx_abs="41.59" NOx_abs="129.74" fuel_abs="120924.54" electricity_abs="0.00"/>
    </tripinfo>
    <tripinfo id="36" depart="72.00" departLane="E36_0" departPos="5.10" departSpeed="0.00" departDelay="0.00" arrival="178.00" arrivalLane="-E31_0" arrivalPos="279.20" arrivalSpeed="16.60" duration="106.00" routeLength="1568.07" waitingTime="0.00" waitingCount="0" stopTime="0.00" timeLoss="14.22" rerouteNo="0" devices="tripinfo_36 emissions_36" vType="Car" speedFactor="1.27" vaporized="">
        <emissions CO_abs="2910.40" CO2_abs="359726.15" HC_abs="19.50" PMx_abs="40.41" NOx_abs="129.35" fuel_abs="116618.10" electricity_abs="0.00"/>
    </tripinfo>
    <tripinfo id="49" depart="98.00" departLane="E7_0" departPos="5.10" departSpeed="0.00" departDelay="0.00" arrival="179.00" arrivalLane="E34_0" arrivalPos="266.06" arrivalSpeed="14.93" duration="81.00" routeLength="1101.24" waitingTime="0.00" waitingCount="0" stopTime="0.00" timeLoss="8.99" rerouteNo="0" devices="tripinfo_49 emissions_49" vType="Car" speedFactor="1.13" vaporized="">
        <emissions CO_abs="1453.89" CO2_abs="217191.56" HC_abs="9.75" PMx_abs="25.58" NOx_abs="76.77" fuel_abs="70410.60" electricity_abs="0.00"/>
    </tripinfo>
    <tripinfo id="flow_z2.1" depart="1.00" departLane="-E18_0" departPos="5.10" departSpeed="9.58" departDelay="0.17" arrival="192.00" arrivalLane="-E15_0" arrivalPos="479.20" arrivalSpeed="14.74" duration="191.00" routeLength="1988.38" waitingTime="36.00" waitingCount="1" stopTime="0.00" timeLoss="54.04" rerouteNo="0" devices="tripinfo_flow_z2.1 emissions_flow_z2.1" vType="Car" speedFactor="1.06" vaporized="">
        <emissions CO_abs="2473.89" CO2_abs="438632.20" HC_abs="16.55" PMx_abs="43.41" NOx_abs="157.78" fuel_abs="142199.28" electricity_abs="0.00"/>
    </tripinfo>
    <tripinfo id="18" depart="36.00" departLane="E32_0" departPos="5.10" departSpeed="0.00" departDelay="0.00" arrival="194.00" arrivalLane="E17_0" arrivalPos="465.43" arrivalSpeed="13.13" duration="158.00" routeLength="1839.24" waitingTime="0.00" waitingCount="0" stopTime="0.00" timeLoss="16.93" rerouteNo="0" devices="tripinfo_18 emissions_18" vType="Car" speedFactor="0.96" vaporized="">
        <emissions CO_abs="2148.61" CO2_abs="377727.98" HC_abs="14.33" PMx_abs="39.22" NOx_abs="130.21" fuel_abs="122454.39" electricity_abs="0.00"/>
    </tripinfo>
    <tripinfo id="flow_z2.0" depart="0.00" departLane="-E18_0" departPos="5.10" departSpeed="12.79" departDelay="0.00" arrival="196.00" arrivalLane="-E15_0" arrivalPos="479.20" arrivalSpeed="12.52" duration="196.00" routeLength="1988.38" waitingTime="21.00" waitingCount="1" stopTime="0.00" timeLoss="38.93" rerouteNo="0" devices="tripinfo_flow_z2.0 emissions_flow_z2.0" vType="Car" speedFactor="0.92" vaporized="">
        <emissions CO_abs="1840.24" CO2_abs="392283.27" HC_abs="12.30" PMx_abs="39.38" NOx_abs="137.70" fuel_abs="127173.54" electricity_abs="0.00"/>
    </tripinfo>
    <tripinfo id="flow_z2.3" depart="4.00" departLane="-E18_0" departPos="5.10" departSpeed="5.54" departDelay="1.50" arrival="197.00" arrivalLane="-E15_1" arrivalPos="479.20" arrivalSpeed="12.82" duration="193.00" routeLength="1984.04" waitingTime="21.00" waitingCount="2" stopTime="0.00" timeLoss="54.72" rerouteNo="0" devices="tripinfo_flow_z2.3 emissions_flow_z2.3" vType="Car" speedFactor="1.05" vaporized="">
        <emissions CO_abs="2592.37" CO2_abs="454297.70" HC_abs="17.27" PMx_abs="40.36" NOx_abs="159.51" fuel_abs="147277.28" electricity_abs="0.00"/>
    </tripinfo>
    <tripinfo id="flow_z3.13" depart="27.00" departLane="-E28_1" departPos="5.10" departSpeed="6.97" departDelay="16.17" arrival="197.00" arrivalLane="-E29_1" arrivalPos="266.06" arrivalSpeed="11.70" duration="170.00" routeLength="1186.43" waitingTime="50.00" waitingCount="1" stopTime="0.00" timeLoss="72.38" rerouteNo="0" devices="tripinfo_flow_z3.13 emissions_flow_z3.13" vType="Car" speedFactor="0.90" vaporized="">
        <emissions CO_abs="1178.23" CO2_abs="332450.07" HC_abs="7.84" PMx_abs="24.38" NOx_abs="118.47" fuel_abs="107776.59" electricity_abs="0.00"/>
    </tripinfo>
    <tripinfo id="54" depart="108.00" departLane="-E6_0" departPos="5.10" departSpeed="0.00" departDelay="0.00" arrival="198.00" arrivalLane="E6_1" arrivalPos="466.06" arrivalSpeed="8.71" duration="90.00" routeLength="1043.03" waitingTime="0.00" waitingCount="0" stopTime="0.00" timeLoss="11.68" rerouteNo="0" devices="tripinfo_54 emissions_54" vType="Car" speedFactor="0.98" vaporized="">
        <emissions CO_abs="1175.78" CO2_abs="211842.00" HC_abs="7.84" PMx_abs="20.98" NOx_abs="72.12" fuel_abs="68676.27" electricity_abs="0.00"/>
    </tripinfo>
    <tripinfo id="flow_z2.4" depart="6.00" departLane="-E18_0" departPos="5.10" departSpeed="5.64" departDelay="2.67" arrival="199.00" arrivalLane="-E15_1" arrivalPos="479.20" arrivalSpeed="13.69" duration="193.00" routeLength="1988.38" waitingTime="17.00" waitingCount="2" stopTime="0.00" timeLoss="55.45" rerouteNo="0" devices="tripinfo_flow_z2.4 emissions_flow_z2.4" vType="Car" speedFactor="1.05" vaporized="">
        <emissions CO_abs="2663.65" CO2_abs="465099.79" HC_abs="17.75" PMx_abs="42.19" NOx_abs="161.65" fuel_abs="150779.07" electricity_abs="0.00"/>
    </tripinfo>
    <tripinfo id="flow_z3.11" depart="23.00" departLane="-E28_1" departPos="5.10" departSpeed="5.86" departDelay="13.84" arrival="199.00" arrivalLane="-E29_1" arrivalPos="266.06" arrivalSpeed="14.16" duration="176.00" routeLength="1186.43" waitingTime="49.00" waitingCount="1" stopTime="0.00" timeLoss="92.73" rerouteNo="0" devices="tripinfo_flow_z3.11 emissions_flow_z3.11" vType="Car" speedFactor="1.06" vaporized="">
        <emissions CO_abs="1584.10" CO2_abs="380333.85" HC_abs="10.52" PMx_abs="26.00" NOx_abs="133.63" fuel_abs="123299.58" electricity_abs="0.00"/>
    </tripinfo>
    <tripinfo id="flow_z2.5" depart="8.00" departLane="-E18_0" departPos="5.10" departSpeed="5.48" departDelay="3.84" arrival="200.00" arrivalLane="-E15_1" arrivalPos="479.20" arrivalSpeed="14.43" duration="192.00" routeLength="1984.04" waitingTime="18.00" waitingCount="2" stopTime="0.00" timeLoss="56.10" rerouteNo="0" devices="tripinfo_flow_z2.5 emissions_flow_z2.5" vType="Car" speedFactor="1.06" vaporized="">
        <emissions CO_abs="2789.73" CO2_abs="467589.00" HC_abs="18.57" PMx_abs="41.03" NOx_abs="164.31" fuel_abs="151586.00" electricity_abs="0.00"/>
    </tripinfo>
    <tripinfo id="3" depart="6.00" departLane="E37_0" departPos="5.10" departSpeed="0.00" departDelay="0.00" arrival="201.00" arrivalLane="-E14_1" arrivalPos="279.20" arrivalSpeed="14.24" duration="195.00" routeLength="1837.99" waitingTime="47.00" waitingCount="1" stopTime="0.00" timeLoss="67.44" rerouteNo="0" devices="tripinfo_3 emissions_3" vType="Car" speedFactor="1.06" vaporized="">
        <emissions CO_abs="2332.74" CO2_abs="460135.76" HC_abs="15.60" PMx_abs="42.82" NOx_abs="164.26" fuel_abs="149170.40" electricity_abs="0.00"/>
    </tripinfo>
    <tripinfo id="flow_z2.2" depart="2.00" departLane="-E18_0" departPos="5.10" departSpeed="5.27" departDelay="0.33" arrival="201.00" arrivalLane="-E15_0" arrivalPos="479.20" arrivalSpeed="6.92" duration="199.00" routeLength="1988.38" waitingTime="19.00" waitingCount="2" stopTime="0.00" timeLoss="55.67" rerouteNo="0" devices="tripinfo_flow_z2.2 emissions_flow_z2.2" vType="Car" speedFactor="1.01" vaporized="">
        <emissions CO_abs="2428.48" CO2_abs="451295.16" HC_abs="16.17" PMx_abs="39.79" NOx_abs="156.58" fuel_abs="146303.81" electricity_abs="0.00"/>
    </tripinfo>
    <tripinfo id="flow_z3.14" depart="29.00" departLane="-E28_1" departPos="5.10" departSpeed="8.13" departDelay="17.34" arrival="201.00" arrivalLane="-E29_1" arrivalPos="266.06" arrivalSpeed="12.57" duration="172.00" routeLength="1186.43" waitingTime="43.00" waitingCount="1" stopTime="0.00" timeLoss="77.82" rerouteNo="0" devices="tripinfo_flow_z3.14 emissions_flow_z3.14" vType="Car" speedFactor="0.93" vaporized="">
        <emissions CO_abs="1366.99" CO2_abs="344749.61" HC_abs="9.08" PMx_abs="23.42" NOx_abs="119.77" fuel_abs="111763.54" electricity_abs="0.00"/>
    </tripinfo>
    <tripinfo id="flow_z2.6" depart="10.00" departLane="-E18_0" departPos="5.10" departSpeed="6.09" departDelay="5.00" arrival="203.00" arrivalLane="-E15_0" arrivalPos="479.20" arrivalSpeed="10.19" duration="193.00" routeLength="1988.38" waitingTime="14.00" waitingCount="1" stopTime="0.00" timeLoss="44.26" rerouteNo="0" devices="tripinfo_flow_z2.6 emissions_flow_z2.6" vType="Car" speedFactor="0.97" vaporized="">
        <emissions CO_abs="2158.38" CO2_abs="417148.49" HC_abs="14.41" PMx_abs="40.45" NOx_abs="144.67" fuel_abs="135234.16" electricity_abs="0.00"/>
    </tripinfo>
    <tripinfo id="flow_z3.7" depart="13.00" departLane="-E28_1" departPos="5.10" departSpeed="3.08" departDelay="7.17" arrival="203.00" arrivalLane="-E29_0" arrivalPos="266.06" arrivalSpeed="8.33" duration="190.00" routeLength="1186.43" waitingTime="61.00" waitingCount="1" stopTime="0.00" timeLoss="92.71" rerouteNo="0" devices="tripinfo_flow_z3.7 emissions_flow_z3.7" vType="Car" speedFactor="0.90" vaporized="">
        <emissions CO_abs="831.89" CO2_abs="356681.45" HC_abs="5.58" PMx_abs="28.96" NOx_abs="130.31" fuel_abs="115632.86" electricity_abs="0.00"/>
    </tripinfo>
    <tripinfo id="flow_z2.8" depart="14.00" departLane="-E18_0" departPos="5.10" departSpeed="5.60" departDelay="7.34" arrival="203.00" arrivalLane="-E15_1" arrivalPos="479.20" arrivalSpeed="13.33" duration="189.00" routeLength="1984.04" waitingTime="12.00" waitingCount="1" stopTime="0.00" timeLoss="45.79" rerouteNo="0" devices="tripinfo_flow_z2.8 emissions_flow_z2.8" vType="Car" speedFactor="1.01" vaporized="">
        <emissions CO_abs="2311.38" CO2_abs="432389.85" HC_abs="15.43" PMx_abs="42.60" NOx_abs="150.89" fuel_abs="140175.26" electricity_abs="0.00"/>
    </tripinfo>
    <tripinfo id="flow_z3.18" depart="38.00" departLane="-E28_1" departPos="5.10" departSpeed="4.76" departDelay="23.01" arrival="204.00" arrivalLane="-E29_1" arrivalPos="266.06" arrivalSpeed="13.70" duration="166.00" routeLength="1186.43" waitingTime="38.00" waitingCount="2" stopTime="0.00" timeLoss="82.03" rerouteNo="0" devices="tripinfo_flow_z3.18 emissions_flow_z3.18" vType="Car" speedFactor="1.04" vaporized="">
        <emissions CO_abs="1766.35" CO2_abs="388088.81" HC_abs="11.72" PMx_abs="25.67" NOx_abs="133.47" fuel_abs="125813.19" electricity_abs="0.00"/>
    </tripinfo>
    <tripinfo id="flow_z3.9" depart="19.00" departLane="-E28_1" departPos="5.10" departSpeed="5.82" departDelay="11.50" arrival="205.00" arrivalLane="-E29_1" arrivalPos="266.06" arrivalSpeed="15.96" duration="186.00" routeLength="1186.43" waitingTime="55.00" waitingCount="2" stopTime="0.00" timeLoss="113.94" rerouteNo="0" devices="tripinfo_flow_z3.9 emissions_flow_z3.9" vType="Car" speedFactor="1.21" vaporized="">
        <emissions CO_abs="1861.73" CO2_abs="425661.73" HC_abs="12.34" PMx_abs="25.47" NOx_abs="148.51" fuel_abs="137994.09" electricity_abs="0.00"/>
    </tripinfo>
    <tripinfo id="flow_z3.17" depart="35.00" departLane="-E28_1" departPos="5.10" departSpeed="2.58" departDelay="20.84" arrival="205.00" arrivalLane="-E29_0" arrivalPos="266.06" arrivalSpeed="13.05" duration="170.00" routeLength="1186.43" waitingTime="41.00" waitingCount="1" stopTime="0.00" timeLoss="78.28" rerouteNo="0" devices="tripinfo_flow_z3.17 emissions_flow_z3.17" vType="Car" speedFactor="0.96" vaporized="">
        <emissions CO_abs="1561.38" CO2_abs="373052.87" HC_abs="10.36" PMx_abs="24.62" NOx_abs="129.01" fuel_abs="120938.93" electricity_abs="0.00"/>
    </tripinfo>
    <tripinfo id="flow_z2.7" depart="12.00" departLane="-E18_0" departPos="5.10" departSpeed="5.93" departDelay="6.17" arrival="206.00" arrivalLane="-E15_0" arrivalPos="479.20" arrivalSpeed="12.47" duration="194.00" routeLength="1984.04" waitingTime="14.00" waitingCount="1" stopTime="0.00" timeLoss="39.16" rerouteNo="0" devices="tripinfo_flow_z2.7 emissions_flow_z2.7" vType="Car" speedFactor="0.93" vaporized="">
        <emissions CO_abs="1886.58" CO2_abs="404137.20" HC_abs="12.62" PMx_abs="42.07" NOx_abs="141.26" fuel_abs="131016.42" electricity_abs="0.00"/>
    </tripinfo>
    <tripinfo id="24" depart="48.00" departLane="E18_0" departPos="5.10" departSpeed="0.00" departDelay="0.00" arrival="208.00" arrivalLane="-E35_0" arrivalPos="266.06" arrivalSpeed="6.04" duration="160.00" routeLength="1550.18" waitingTime="30.00" waitingCount="2" stopTime="0.00" timeLoss="56.15" rerouteNo="0" devices="tripinfo_24 emissions_24" vType="Car" speedFactor="1.10" vaporized="">
        <emissions CO_abs="2308.90" CO2_abs="399006.15" HC_abs="15.40" PMx_abs="33.85" NOx_abs="140.53" fuel_abs="129352.34" electricity_abs="0.00"/>
    </tripinfo>
    <tripinfo id="flow_z2.10" depart="18.00" departLane="-E18_0" departPos="5.10" departSpeed="2.16" departDelay="9.67" arrival="208.00" arrivalLane="-E15_0" arrivalPos="479.20" arrivalSpeed="12.65" duration="190.00" routeLength="1988.38" waitingTime="13.00" waitingCount="1" stopTime="0.00" timeLoss="40.36" rerouteNo="0" devices="tripinfo_flow_z2.10 emissions_flow_z2.10" vType="Car" speedFactor="0.97" vaporized="">
        <emissions CO_abs="2079.98" CO2_abs="410669.49" HC_abs="13.89" PMx_abs="40.99" NOx_abs="142.52" fuel_abs="133133.80" electricity_abs="0.00"/>
    </tripinfo>
    <tripinfo id="flow_z3.10" depart="21.00" departLane="-E28_1" departPos="5.10" departSpeed="6.01" departDelay="12.67" arrival="208.00" arrivalLane="-E29_0" arrivalPos="266.06" arrivalSpeed="13.02" duration="187.00" routeLength="1186.43" waitingTime="54.00" waitingCount="1" stopTime="0.00" timeLoss="101.77" rerouteNo="0" devices="tripinfo_flow_z3.10 emissions_flow_z3.10" vType="Car" speedFactor="1.02" vaporized="">
        <emissions CO_abs="1379.61" CO2_abs="376912.59" HC_abs="9.17" PMx_abs="24.20" NOx_abs="131.43" fuel_abs="122190.54" electricity_abs="0.00"/>
    </tripinfo>
    <tripinfo id="flow_z2.11" depart="21.00" departLane="-E18_0" departPos="5.10" departSpeed="3.83" departDelay="11.84" arrival="208.00" arrivalLane="-E15_1" arrivalPos="479.20" arrivalSpeed="15.00" duration="187.00" routeLength="1984.04" waitingTime="11.00" waitingCount="1" stopTime="0.00" timeLoss="56.06" rerouteNo="0" devices="tripinfo_flow_z2.11 emissions_flow_z2.11" vType="Car" speedFactor="1.10" vaporized="">
        <emissions CO_abs="2666.42" CO2_abs="440931.34" HC_abs="17.81" PMx_abs="41.58" NOx_abs="154.76" fuel_abs="142943.97" electricity_abs="0.00"/>
    </tripinfo>
    <tripinfo id="flow_z2.9" depart="16.00" departLane="-E18_0" departPos="5.10" departSpeed="3.89" departDelay="8.50" arrival="210.00" arrivalLane="-E15_0" arrivalPos="479.20" arrivalSpeed="13.83" duration="194.00" routeLength="1984.04" waitingTime="15.00" waitingCount="2" stopTime="0.00" timeLoss="59.43" rerouteNo="0" devices="tripinfo_flow_z2.9 emissions_flow_z2.9" vType="Car" speedFactor="1.08" vaporized="">
        <emissions CO_abs="2596.99" CO2_abs="458990.59" HC_abs="17.32" PMx_abs="41.80" NOx_abs="160.32" fuel_abs="148798.56" electricity_abs="0.00"/>
    </tripinfo>
    <tripinfo id="flow_z2.16" depart="31.00" departLane="-E18_0" departPos="5.10" departSpeed="5.62" departDelay="17.67" arrival="211.00" arrivalLane="-E15_1" arrivalPos="479.20" arrivalSpeed="16.11" duration="180.00" routeLength="1984.04" waitingTime="0.00" waitingCount="0" stopTime="0.00" timeLoss="56.36" rerouteNo="0" devices="tripinfo_flow_z2.16 emissions_flow_z2.16" vType="Car" speedFactor="1.17" vaporized="">
        <emissions CO_abs="2345.52" CO2_abs="408459.16" HC_abs="15.70" PMx_abs="43.13" NOx_abs="143.00" fuel_abs="132417.10" electricity_abs="0.00"/>
    </tripinfo>
    <tripinfo id="39" depart="83.00" departLane="-E28_0" departPos="5.10" departSpeed="0.00" departDelay="5.00" arrival="212.00" arrivalLane="-E26_1" arrivalPos="265.43" arrivalSpeed="6.83" duration="129.00" routeLength="860.33" waitingTime="18.00" waitingCount="2" stopTime="0.00" timeLoss="64.47" rerouteNo="0" devices="tripinfo_39 emissions_39" vType="Car" speedFactor="0.96" vaporized="">
        <emissions CO_abs="1075.88" CO2_abs="288576.45" HC_abs="7.13" PMx_abs="18.02" NOx_abs="95.51" fuel_abs="93552.48" electricity_abs="0.00"/>
    </tripinfo>