<?xml version="1.0" encoding="UTF-8"?>

<!-- generated on 2026-05-30T17:16:55.013056+00:00 by Eclipse SUMO sumo 1.26.0
<sumoConfiguration xmlns:xsi="http://www.w3.org/2001/XMLSchema-instance" xsi:noNamespaceSchemaLocation="http://sumo.dlr.de/xsd/sumoConfiguration.xsd">

    <input>
        <net-file value="manhattan.net.xml"/>
        <route-files value="routes.rou.xml,background.rou.xml"/>
        <additional-files value="mosaic_types.add.xml"/>
    </input>

    <output>
        <tripinfo-output value="/home/netsim/opt/tpnpr/tripinfo.xml"/>
    </output>

    <time>
        <begin value="0"/>
        <end value="3600"/>
        <step-length value="1.00"/>
    </time>

    <processing>
        <ignore-route-errors value="true"/>
        <time-to-teleport value="0"/>
    </processing>

    <report>
        <verbose value="true"/>
        <no-step-log value="true"/>
    </report>

    <emissions>
        <device.emissions.probability value="1.0"/>
    </emissions>

    <traci_server>
        <remote-port value="35335"/>
    </traci_server>

    <random_number>
        <seed value="100000"/>
    </random_number>

</sumoConfiguration>
-->

<tripinfos xmlns:xsi="http://www.w3.org/2001/XMLSchema-instance" xsi:noNamespaceSchemaLocation="http://sumo.dlr.de/xsd/tripinfo_file.xsd">
    <tripinfo id="13" depart="26.00" departLane="-E15_0" departPos="5.10" departSpeed="0.00" departDelay="0.00" arrival="71.00" arrivalLane="-E15_0" arrivalPos="479.20" arrivalSpeed="11.72" duration="45.00" routeLength="474.10" waitingTime="0.00" waitingCount="0" stopTime="0.00" timeLoss="5.42" rerouteNo="0" devices="tripinfo_13 emissions_13" vType="Car" speedFactor="0.88" vaporized="">
        <emissions CO_abs="423.28" CO2_abs="100691.60" HC_abs="2.83" PMx_abs="10.60" NOx_abs="34.12" fuel_abs="32642.91" electricity_abs="0.00"/>
    </tripinfo>
    <tripinfo id="flow_z3.1" depart="2.00" departLane="-E28_1" departPos="5.10" departSpeed="13.87" departDelay="0.33" arrival="85.00" arrivalLane="-E29_0" arrivalPos="266.06" arrivalSpeed="15.71" duration="83.00" routeLength="1186.43" waitingTime="0.00" waitingCount="0" stopTime="0.00" timeLoss="7.86" rerouteNo="0" devices="tripinfo_flow_z3.1 emissions_flow_z3.1" vType="Car" speedFactor="1.16" vaporized="">
        <emissions CO_abs="1599.06" CO2_abs="212731.47" HC_abs="10.72" PMx_abs="25.86" NOx_abs="77.06" fuel_abs="68964.75" electricity_abs="0.00"/>
    </tripinfo>
    <tripinfo id="22" depart="44.00" departLane="-E14_0" departPos="5.10" departSpeed="0.00" departDelay="0.00" arrival="99.00" arrivalLane="-E25_0" arrivalPos="279.20" arrivalSpeed="11.43" duration="55.00" routeLength="574.10" waitingTime="0.00" waitingCount="0" stopTime="0.00" timeLoss="5.64" rerouteNo="0" devices="tripinfo_22 emissions_22" vType="Car" speedFactor="0.85" vaporized="">
        <emissions CO_abs="471.12" CO2_abs="114066.97" HC_abs="3.15" PMx_abs="12.09" NOx_abs="38.75" fuel_abs="36979.06" electricity_abs="0.00"/>
    </tripinfo>
    <tripinfo id="flow_z3.0" depart="0.00" departLane="-E28_1" departPos="5.10" departSpeed="12.68" departDelay="0.00" arrival="104.00" arrivalLane="-E29_0" arrivalPos="266.06" arrivalSpeed="12.47" duration="104.00" routeLength="1186.43" waitingTime="0.00" waitingCount="0" stopTime="0.00" timeLoss="8.26" rerouteNo="0" devices="tripinfo_flow_z3.0 emissions_flow_z3.0" vType="Car" speedFactor="0.91" vaporized="">
        <emissions CO_abs="989.08" CO2_abs="201080.19" HC_abs="6.63" PMx_abs="23.87" NOx_abs="70.99" fuel_abs="65187.87" electricity_abs="0.00"/>
    </tripinfo>
    <tripinfo id="flow_z3.2" depart="4.00" departLane="-E28_1" departPos="5.10" departSpeed="13.74" departDelay="0.67" arrival="104.00" arrivalLane="-E29_1" arrivalPos="266.06" arrivalSpeed="13.69" duration="100.00" routeLength="1186.43" waitingTime="0.00" waitingCount="0" stopTime="0.00" timeLoss="11.89" rerouteNo="0" devices="tripinfo_flow_z3.2 emissions_flow_z3.2" vType="Car" speedFactor="0.99" vaporized="">
        <emissions CO_abs="1323.40" CO2_abs="219158.38" HC_abs="8.82" PMx_abs="22.95" NOx_abs="76.86" fuel_abs="71048.30" electricity_abs="0.00"/>
    </tripinfo>
    <tripinfo id="flow_z3.3" depart="5.00" departLane="-E28_1" departPos="5.10" departSpeed="10.42" departDelay="0.00" arrival="107.00" arrivalLane="-E29_0" arrivalPos="266.06" arrivalSpeed="13.35" duration="102.00" routeLength="1186.43" waitingTime="0.00" waitingCount="0" stopTime="0.00" timeLoss="13.56" rerouteNo="0" devices="tripinfo_flow_z3.3 emissions_flow_z3.3" vType="Car" speedFactor="0.99" vaporized="">
        <emissions CO_abs="1415.84" CO2_abs="236099.61" HC_abs="9.44" PMx_abs="24.91" NOx_abs="82.70" fuel_abs="76540.43" electricity_abs="0.00"/>
    </tripinfo>
    <tripinfo id="flow_z3.4" depart="7.00" departLane="-E28_1" departPos="5.10" departSpeed="11.71" departDelay="0.34" arrival="109.00" arrivalLane="-E29_0" arrivalPos="266.06" arrivalSpeed="13.64" duration="102.00" routeLength="1186.43" waitingTime="0.00" waitingCount="0" stopTime="0.00" timeLoss="14.55" rerouteNo="0" devices="tripinfo_flow_z3.4 emissions_flow_z3.4" vType="Car" speedFactor="1.01" vaporized="">
        <emissions CO_abs="1531.47" CO2_abs="247046.36" HC_abs="10.20" PMx_abs="24.86" NOx_abs="86.55" fuel_abs="80089.15" electricity_abs="0.00"/>
    </tripinfo>
    <tripinfo id="flow_z3.5" depart="9.00" departLane="-E28_1" departPos="5.10" departSpeed="12.78" departDelay="0.67" arrival="110.00" arrivalLane="-E29_1" arrivalPos="266.06" arrivalSpeed="14.58" duration="101.00" routeLength="1186.43" waitingTime="0.00" waitingCount="0" stopTime="0.00" timeLoss="18.60" rerouteNo="0" devices="tripinfo_flow_z3.5 emissions_flow_z3.5" vType="Car" speedFactor="1.06" vaporized="">
        <emissions CO_abs="1630.49" CO2_abs="243932.33" HC_abs="10.84" PMx_abs="22.75" NOx_abs="85.15" fuel_abs="79079.46" electricity_abs="0.00"/>
    </tripinfo>
    <tripinfo id="flow_z3.6" depart="10.00" departLane="-E28_1" departPos="5.10" departSpeed="9.98" departDelay="0.00" arrival="111.00" arrivalLane="-E29_0" arrivalPos="266.06" arrivalSpeed="14.58" duration="101.00" routeLength="1186.43" waitingTime="0.00" waitingCount="0" stopTime="0.00" timeLoss="21.93" rerouteNo="0" devices="tripinfo_flow_z3.6 emissions_flow_z3.6" vType="Car" speedFactor="1.10" vaporized="">
        <emissions CO_abs="1679.62" CO2_abs="261340.50" HC_abs="11.19" PMx_abs="25.80" NOx_abs="91.52" fuel_abs="84723.06" electricity_abs="0.00"/>
    </tripinfo>
    <tripinfo id="flow_z3.8" depart="14.00" departLane="-E28_1" departPos="5.10" departSpeed="10.71" departDelay="0.67" arrival="114.00" arrivalLane="-E29_0" arrivalPos="266.06" arrivalSpeed="13.89" duration="100.00" routeLength="1186.43" waitingTime="0.00" waitingCount="0" stopTime="0.00" timeLoss="17.90" rerouteNo="0" devices="tripinfo_flow_z3.8 emissions_flow_z3.8" vType="Car" speedFactor="1.07" vaporized="">
        <emissions CO_abs="1604.48" CO2_abs="249386.53" HC_abs="10.70" PMx_abs="25.55" NOx_abs="87.44" fuel_abs="80847.77" electricity_abs="0.00"/>
    </tripinfo>
    <tripinfo id="12" depart="24.00" departLane="E6_0" departPos="5.10" departSpeed="0.00" departDelay="0.00" arrival="128.00" arrivalLane="-E32_0" arrivalPos="266.06" arrivalSpeed="13.01" duration="104.00" routeLength="1239.52" waitingTime="0.00" waitingCount="0" stopTime="0.00" timeLoss="9.97" rerouteNo="0" devices="tripinfo_12 emissions_12" vType="Car" speedFactor="0.97" vaporized="">
        <emissions CO_abs="1273.98" CO2_abs="234488.76" HC_abs="8.51" PMx_abs="26.43" NOx_abs="81.77" fuel_abs="76018.28" electricity_abs="0.00"/>
    </tripinfo>
    <tripinfo id="21" depart="42.00" departLane="-E25_0" departPos="5.10" departSpeed="0.00" departDelay="0.00" arrival="131.00" arrivalLane="-E3_0" arrivalPos="483.20" arrivalSpeed="12.67" duration="89.00" routeLength="1079.36" waitingTime="0.00" waitingCount="0" stopTime="0.00" timeLoss="7.64" rerouteNo="0" devices="tripinfo_21 emissions_21" vType="Car" speedFactor="0.96" vaporized="">
        <emissions CO_abs="1104.78" CO2_abs="197370.71" HC_abs="7.38" PMx_abs="21.75" NOx_abs="68.58" fuel_abs="63985.01" electricity_abs="0.00"/>
    </tripinfo>
    <tripinfo id="30" depart="60.00" departLane="E9_0" departPos="5.10" departSpeed="0.00" departDelay="0.00" arrival="133.00" arrivalLane="E19_0" arrivalPos="283.20" arrivalSpeed="15.67" duration="73.00" routeLength="878.10" waitingTime="4.00" waitingCount="1" stopTime="0.00" timeLoss="17.09" rerouteNo="0" devices="tripinfo_30 emissions_30" vType="Car" speedFactor="1.13" vaporized="">
        <emissions CO_abs="1297.40" CO2_abs="207988.03" HC_abs="8.69" PMx_abs="21.74" NOx_abs="72.40" fuel_abs="67426.83" electricity_abs="0.00"/>
    </tripinfo>
    <tripinfo id="4" depart="8.00" departLane="-E39_0" departPos="5.10" departSpeed="0.00" departDelay="0.00" arrival="147.00" arrivalLane="-E10_0" arrivalPos="479.20" arrivalSpeed="11.51" duration="139.00" routeLength="1552.66" waitingTime="0.00" waitingCount="0" stopTime="0.00" timeLoss="13.34" rerouteNo="0" devices="tripinfo_4 emissions_4" vType="Car" speedFactor="0.90" vaporized="">
        <emissions CO_abs="1471.99" CO2_abs="297168.75" HC_abs="9.83" PMx_abs="32.18" NOx_abs="102.44" fuel_abs="96338.36" electricity_abs="0.00"/>
    </tripinfo>
    <tripinfo id="1" depart="2.00" departLane="-E29_0" departPos="5.10" departSpeed="0.00" departDelay="0.00" arrival="153.00" arrivalLane="-E24_0" arrivalPos="283.20" arrivalSpeed="13.87" duration="151.00" routeLength="1942.97" waitingTime="0.00" waitingCount="0" stopTime="0.00" timeLoss="15.11" rerouteNo="0" devices="tripinfo_1 emissions_1" vType="Car" speedFactor="1.04" vaporized="">
        <emissions CO_abs="2194.45" CO2_abs="363324.87" HC_abs="14.72" PMx_abs="43.08" NOx_abs="127.81" fuel_abs="117785.25" electricity_abs="0.00"/>
    </tripinfo>
    <tripinfo id="48" depart="96.00" departLane="E9_0" departPos="5.10" departSpeed="0.00" departDelay="0.00" arrival="158.00" arrivalLane="E10_0" arrivalPos="479.20" arrivalSpeed="13.35" duration="62.00" routeLength="772.65" waitingTime="0.00" waitingCount="0" stopTime="0.00" timeLoss="7.17" rerouteNo="0" devices="tripinfo_48 emissions_48" vType="Car" speedFactor="1.03" vaporized="">
        <emissions CO_abs="948.96" CO2_abs="165291.95" HC_abs="6.35" PMx_abs="18.03" NOx_abs="56.78" fuel_abs="53585.41" electricity_abs="0.00"/>
    </tripinfo>
    <tripinfo id="23" depart="46.00" departLane="-E16_0" departPos="5.10" departSpeed="0.00" departDelay="0.00" arrival="162.00" arrivalLane="-E29_0" arrivalPos="266.06" arrivalSpeed="13.89" duration="116.00" routeLength="1384.98" waitingTime="2.00" waitingCount="1" stopTime="0.00" timeLoss="18.15" rerouteNo="0" devices="tripinfo_23 emissions_23" vType="Car" speedFactor="1.05" vaporized="">
        <emissions CO_abs="1739.48" CO2_abs="302777.11" HC_abs="11.65" PMx_abs="33.24" NOx_abs="104.97" fuel_abs="98156.32" electricity_abs="0.00"/>
    </tripinfo>
    <tripinfo id="flow_z1.2" depart="4.00" departLane="-E1_0" departPos="5.10" departSpeed="13.56" departDelay="0.67" arrival="165.00" arrivalLane="E19_1" arrivalPos="283.20" arrivalSpeed="15.54" duration="161.00" routeLength="2181.19" waitingTime="0.00" waitingCount="0" stopTime="0.00" timeLoss="22.36" rerouteNo="0" devices="tripinfo_flow_z1.2 emissions_flow_z1.2" vType="Car" speedFactor="1.14" vaporized="">
        <emissions CO_abs="2657.15" CO2_abs="379223.88" HC_abs="17.79" PMx_abs="45.84" NOx_abs="136.97" fuel_abs="122939.55" electricity_abs="0.00"/>
    </tripinfo>
    <tripinfo id="flow_z3.9" depart="15.00" departLane="-E28_1" departPos="5.10" departSpeed="7.03" departDelay="0.01" arrival="165.00" arrivalLane="-E29_0" arrivalPos="266.06" arrivalSpeed="15.55" duration="150.00" routeLength="1186.43" waitingTime="56.00" waitingCount="2" stopTime="0.00" timeLoss="78.03" rerouteNo="0" devices="tripinfo_flow_z3.9 emissions_flow_z3.9" vType="Car" speedFactor="1.21" vaporized="">
        <emissions CO_abs="1899.83" CO2_abs="354358.34" HC_abs="12.69" PMx_abs="27.08" NOx_abs="129.05" fuel_abs="114878.65" electricity_abs="0.00"/>
    </tripinfo>
    <tripinfo id="flow_z1.0" depart="0.00" departLane="-E1_0" departPos="5.10" departSpeed="13.81" departDelay="0.00" arrival="168.00" arrivalLane="E19_0" arrivalPos="283.20" arrivalSpeed="13.06" duration="168.00" routeLength="2181.19" waitingTime="0.00" waitingCount="0" stopTime="0.00" timeLoss="8.83" rerouteNo="0" devices="tripinfo_flow_z1.0 emissions_flow_z1.0" vType="Car" speedFactor="0.99" vaporized="">
        <emissions CO_abs="1917.19" CO2_abs="334038.68" HC_abs="12.90" PMx_abs="45.19" NOx_abs="120.44" fuel_abs="108291.55" electricity_abs="0.00"/>
    </tripinfo>
    <tripinfo id="16" depart="32.00" departLane="E10_0" departPos="5.10" departSpeed="0.00" departDelay="0.00" arrival="177.00" arrivalLane="E7_0" arrivalPos="466.06" arrivalSpeed="14.34" duration="145.00" routeLength="1801.77" waitingTime="4.00" waitingCount="1" stopTime="0.00" timeLoss="19.93" rerouteNo="0" devices="tripinfo_16 emissions_16" vType="Car" speedFactor="1.06" vaporized="">
        <emissions CO_abs="2321.64" CO2_abs="369529.96" HC_abs="15.52" PMx_abs="38.91" NOx_abs="129.45" fuel_abs="119796.56" electricity_abs="0.00"/>
    </tripinfo>
    <tripinfo id="flow_z1.3" depart="5.00" departLane="-E1_0" departPos="5.10" departSpeed="10.50" departDelay="0.00" arrival="177.00" arrivalLane="E19_0" arrivalPos="283.20" arrivalSpeed="13.45" duration="172.00" routeLength="2181.19" waitingTime="0.00" waitingCount="0" stopTime="0.00" timeLoss="17.50" rerouteNo="0" devices="tripinfo_flow_z1.3 emissions_flow_z1.3" vType="Car" speedFactor="1.03" vaporized="">
        <emissions CO_abs="2561.03" CO2_abs="395166.61" HC_abs="17.11" PMx_abs="45.00" NOx_abs="140.82" fuel_abs="128107.98" electricity_abs="0.00"/>
    </tripinfo>
    <tripinfo id="flow_z1.1" depart="2.00" departLane="-E1_0" departPos="5.10" departSpeed="13.03" departDelay="0.33" arrival="181.00" arrivalLane="E19_0" arrivalPos="283.20" arrivalSpeed="12.77" duration="179.00" routeLength="2181.19" waitingTime="0.00" waitingCount="0" stopTime="0.00" timeLoss="10.11" rerouteNo="0" devices="tripinfo_flow_z1.1 emissions_flow_z1.1" vType="Car" speedFactor="0.94" vaporized="">
        <emissions CO_abs="1985.27" CO2_abs="361209.59" HC_abs="13.30" PMx_abs="44.62" NOx_abs="128.98" fuel_abs="117099.94" electricity_abs="0.00"/>
    </tripinfo>
    <tripinfo id="11" depart="22.00" departLane="-E33_0" departPos="5.10" departSpeed="0.00" departDelay="0.00" arrival="187.00" arrivalLane="-E2_0" arrivalPos="479.20" arrivalSpeed="14.04" duration="165.00" routeLength="2093.43" waitingTime="0.00" waitingCount="0" stopTime="0.00" timeLoss="15.15" rerouteNo="0" devices="tripinfo_11 emissions_11" vType="Car" speedFactor="1.03" vaporized="">
        <emissions CO_abs="2434.85" CO2_abs="387340.68" HC_abs="16.27" PMx_abs="43.05" NOx_abs="136.24" fuel_abs="125570.75" electricity_abs="0.00"/>
    </tripinfo>
    <tripinfo id="54" depart="108.00" departLane="-E6_0" departPos="5.10" departSpeed="0.00" departDelay="0.00" arrival="188.00" arrivalLane="E6_0" arrivalPos="466.06" arrivalSpeed="14.29" duration="80.00" routeLength="1043.03" waitingTime="0.00" waitingCount="0" stopTime="0.00" timeLoss="9.31" rerouteNo="0" devices="tripinfo_54 emissions_54" vType="Car" speedFactor="1.10" vaporized="">
        <emissions CO_abs="1447.01" CO2_abs="216183.55" HC_abs="9.68" PMx_abs="23.82" NOx_abs="75.99" fuel_abs="70083.74" electricity_abs="0.00"/>
    </tripinfo>
    <tripinfo id="flow_z2.1" depart="2.00" departLane="-E18_0" departPos="5.10" departSpeed="13.62" departDelay="0.33" arrival="191.00" arrivalLane="-E15_0" arrivalPos="479.20" arrivalSpeed="14.44" duration="189.00" routeLength="1988.38" waitingTime="24.00" waitingCount="1" stopTime="0.00" timeLoss="52.72" rerouteNo="0" devices="tripinfo_flow_z2.1 emissions_flow_z2.1" vType="Car" speedFactor="1.06" vaporized="">
        <emissions CO_abs="2179.23" CO2_abs="412921.67" HC_abs="14.58" PMx_abs="42.21" NOx_abs="146.50" fuel_abs="133864.20" electricity_abs="0.00"/>
    </tripinfo>
    <tripinfo id="flow_z2.2" depart="4.00" departLane="-E18_0" departPos="5.10" departSpeed="13.97" departDelay="0.67" arrival="195.00" arrivalLane="-E15_1" arrivalPos="479.20" arrivalSpeed="13.75" duration="191.00" routeLength="1988.38" waitingTime="20.00" waitingCount="1" stopTime="0.00" timeLoss="46.84" rerouteNo="0" devices="tripinfo_flow_z2.2 emissions_flow_z2.2" vType="Car" speedFactor="1.01" vaporized="">
        <emissions CO_abs="2480.24" CO2_abs="438539.22" HC_abs="16.52" PMx_abs="40.12" NOx_abs="154.02" fuel_abs="142168.65" electricity_abs="0.00"/>
    </tripinfo>
    <tripinfo id="flow_z3.14" depart="24.00" departLane="-E28_1" departPos="5.10" departSpeed="5.36" departDelay="0.68" arrival="195.00" arrivalLane="-E29_1" arrivalPos="266.06" arrivalSpeed="12.82" duration="171.00" routeLength="1186.43" waitingTime="53.00" waitingCount="1" stopTime="0.00" timeLoss="77.47" rerouteNo="0" devices="tripinfo_flow_z3.14 emissions_flow_z3.14" vType="Car" speedFactor="0.93" vaporized="">
        <emissions CO_abs="1313.63" CO2_abs="342947.86" HC_abs="8.74" PMx_abs="24.11" NOx_abs="121.78" fuel_abs="111179.72" electricity_abs="0.00"/>
    </tripinfo>
    <tripinfo id="flow_z2.0" depart="0.00" departLane="-E18_0" departPos="5.10" departSpeed="12.79" departDelay="0.00" arrival="196.00" arrivalLane="-E15_0" arrivalPos="479.20" arrivalSpeed="12.01" duration="196.00" routeLength="1988.38" waitingTime="22.00" waitingCount="1" stopTime="0.00" timeLoss="38.52" rerouteNo="0" devices="tripinfo_flow_z2.0 emissions_flow_z2.0" vType="Car" speedFactor="0.92" vaporized="">
        <emissions CO_abs="1828.63" CO2_abs="396361.04" HC_abs="12.24" PMx_abs="41.33" NOx_abs="140.05" fuel_abs="128495.66" electricity_abs="0.00"/>
    </tripinfo>
    <tripinfo id="18" depart="36.00" departLane="E32_0" departPos="5.10" departSpeed="0.00" departDelay="0.00" arrival="197.00" arrivalLane="E17_0" arrivalPos="465.43" arrivalSpeed="12.50" duration="161.00" routeLength="1839.24" waitingTime="0.00" waitingCount="0" stopTime="0.00" timeLoss="18.22" rerouteNo="0" devices="tripinfo_18 emissions_18" vType="Car" speedFactor="0.95" vaporized="">
        <emissions CO_abs="2012.74" CO2_abs="373509.74" HC_abs="13.43" PMx_abs="38.82" NOx_abs="128.90" fuel_abs="121086.99" electricity_abs="0.00"/>
    </tripinfo>
    <tripinfo id="flow_z3.15" depart="26.00" departLane="-E28_1" departPos="5.10" departSpeed="6.40" departDelay="1.01" arrival="197.00" arrivalLane="-E29_1" arrivalPos="266.06" arrivalSpeed="14.86" duration="171.00" routeLength="1186.43" waitingTime="48.00" waitingCount="2" stopTime="0.00" timeLoss="89.84" rerouteNo="0" devices="tripinfo_flow_z3.15 emissions_flow_z3.15" vType="Car" speedFactor="1.07" vaporized="">
        <emissions CO_abs="1588.18" CO2_abs="372505.93" HC_abs="10.55" PMx_abs="24.79" NOx_abs="129.27" fuel_abs="120761.73" electricity_abs="0.00"/>
    </tripinfo>
    <tripinfo id="flow_z2.5" depart="9.00" departLane="-E18_0" departPos="5.10" departSpeed="14.16" departDelay="0.67" arrival="198.00" arrivalLane="-E15_0" arrivalPos="479.20" arrivalSpeed="13.69" duration="189.00" routeLength="1988.38" waitingTime="20.00" waitingCount="1" stopTime="0.00" timeLoss="47.04" rerouteNo="0" devices="tripinfo_flow_z2.5 emissions_flow_z2.5" vType="Car" speedFactor="1.02" vaporized="">
        <emissions CO_abs="2323.68" CO2_abs="424976.07" HC_abs="15.50" PMx_abs="40.92" NOx_abs="149.03" fuel_abs="137771.80" electricity_abs="0.00"/>
    </tripinfo>
    <tripinfo id="flow_z3.17" depart="30.00" departLane="-E28_1" departPos="5.10" departSpeed="5.98" departDelay="1.68" arrival="199.00" arrivalLane="-E29_1" arrivalPos="266.06" arrivalSpeed="15.20" duration="169.00" routeLength="1186.43" waitingTime="45.00" waitingCount="1" stopTime="0.00" timeLoss="90.11" rerouteNo="0" devices="tripinfo_flow_z3.17 emissions_flow_z3.17" vType="Car" speedFactor="1.11" vaporized="">
        <emissions CO_abs="1893.07" CO2_abs="396781.34" HC_abs="12.55" PMx_abs="24.86" NOx_abs="136.84" fuel_abs="128631.16" electricity_abs="0.00"/>
    </tripinfo>
    <tripinfo id="3" depart="6.00" departLane="E37_0" departPos="5.10" departSpeed="0.00" departDelay="0.00" arrival="201.00" arrivalLane="-E14_1" arrivalPos="279.20" arrivalSpeed="14.06" duration="195.00" routeLength="1837.99" waitingTime="47.00" waitingCount="1" stopTime="0.00" timeLoss="67.35" rerouteNo="0" devices="tripinfo_3 emissions_3" vType="Car" speedFactor="1.06" vaporized="">
        <emissions CO_abs="2431.06" CO2_abs="455991.51" HC_abs="16.25" PMx_abs="40.51" NOx_abs="162.89" fuel_abs="147826.83" electricity_abs="0.00"/>
    </tripinfo>
    <tripinfo id="flow_z2.3" depart="5.00" departLane="-E18_0" departPos="5.10" departSpeed="11.06" departDelay="0.00" arrival="201.00" arrivalLane="-E15_1" arrivalPos="479.20" arrivalSpeed="10.09" duration="196.00" routeLength="1984.04" waitingTime="18.00" waitingCount="3" stopTime="0.00" timeLoss="57.68" rerouteNo="0" devices="tripinfo_flow_z2.3 emissions_flow_z2.3" vType="Car" speedFactor="1.05" vaporized="">
        <emissions CO_abs="2446.09" CO2_abs="449408.26" HC_abs="16.32" PMx_abs="41.77" NOx_abs="156.91" fuel_abs="145692.18" electricity_abs="0.00"/>
    </tripinfo>
    <tripinfo id="flow_z3.13" depart="23.00" departLane="-E28_1" departPos="5.10" departSpeed="9.21" departDelay="1.34" arrival="202.00" arrivalLane="-E29_1" arrivalPos="266.06" arrivalSpeed="11.51" duration="179.00" routeLength="1186.43" waitingTime="50.00" waitingCount="1" stopTime="0.00" timeLoss="81.80" rerouteNo="0" devices="tripinfo_flow_z3.13 emissions_flow_z3.13" vType="Car" speedFactor="0.90" vaporized="">
        <emissions CO_abs="1102.15" CO2_abs="328057.63" HC_abs="7.33" PMx_abs="22.30" NOx_abs="114.69" fuel_abs="106352.48" electricity_abs="0.00"/>
    </tripinfo>
    <tripinfo id="flow_z2.4" depart="7.00" departLane="-E18_0" departPos="5.10" departSpeed="12.19" departDelay="0.34" arrival="203.00" arrivalLane="-E15_1" arrivalPos="479.20" arrivalSpeed="11.13" duration="196.00" routeLength="1984.04" waitingTime="10.00" waitingCount="3" stopTime="0.00" timeLoss="59.11" rerouteNo="0" devices="tripinfo_flow_z2.4 emissions_flow_z2.4" vType="Car" speedFactor="1.05" vaporized="">
        <emissions CO_abs="2692.24" CO2_abs="465164.90" HC_abs="17.91" PMx_abs="40.06" NOx_abs="161.44" fuel_abs="150800.04" electricity_abs="0.00"/>
    </tripinfo>
    <tripinfo id="flow_z3.7" depart="12.00" departLane="-E28_1" departPos="5.10" departSpeed="9.90" departDelay="0.34" arrival="203.00" arrivalLane="-E29_0" arrivalPos="266.06" arrivalSpeed="8.33" duration="191.00" routeLength="1186.43" waitingTime="62.00" waitingCount="1" stopTime="0.00" timeLoss="94.14" rerouteNo="0" devices="tripinfo_flow_z3.7 emissions_flow_z3.7" vType="Car" speedFactor="0.90" vaporized="">
        <emissions CO_abs="834.57" CO2_abs="352343.89" HC_abs="5.59" PMx_abs="28.72" NOx_abs="129.79" fuel_abs="114226.67" electricity_abs="0.00"/>
    </tripinfo>
    <tripinfo id="flow_z2.6" depart="10.00" departLane="-E18_0" departPos="5.10" departSpeed="11.31" departDelay="0.00" arrival="205.00" arrivalLane="-E15_0" arrivalPos="479.20" arrivalSpeed="11.85" duration="195.00" routeLength="1988.38" waitingTime="10.00" waitingCount="2" stopTime="0.00" timeLoss="37.04" rerouteNo="0" devices="tripinfo_flow_z2.6 emissions_flow_z2.6" vType="Car" speedFactor="0.92" vaporized="">
        <emissions CO_abs="1902.32" CO2_abs="415014.48" HC_abs="12.72" PMx_abs="42.77" NOx_abs="144.22" fuel_abs="134542.52" electricity_abs="0.00"/>
    </tripinfo>
    <tripinfo id="flow_z2.9" depart="15.00" departLane="-E18_0" departPos="5.10" departSpeed="8.06" departDelay="0.01" arrival="205.00" arrivalLane="-E15_1" arrivalPos="479.20" arrivalSpeed="12.90" duration="190.00" routeLength="1984.04" waitingTime="4.00" waitingCount="1" stopTime="0.00" timeLoss="55.40" rerouteNo="0" devices="tripinfo_flow_z2.9 emissions_flow_z2.9" vType="Car" speedFactor="1.08" vaporized="">
        <emissions CO_abs="2721.63" CO2_abs="467039.66" HC_abs="18.10" PMx_abs="39.67" NOx_abs="159.53" fuel_abs="151407.55" electricity_abs="0.00"/>
    </tripinfo>
    <tripinfo id="flow_z3.11" depart="19.00" departLane="-E28_1" departPos="5.10" departSpeed="7.56" departDelay="0.67" arrival="205.00" arrivalLane="-E29_1" arrivalPos="266.06" arrivalSpeed="15.09" duration="186.00" routeLength="1186.43" waitingTime="56.00" waitingCount="2" stopTime="0.00" timeLoss="106.46" rerouteNo="0" devices="tripinfo_flow_z3.11 emissions_flow_z3.11" vType="Car" speedFactor="1.10" vaporized="">
        <emissions CO_abs="1473.44" CO2_abs="379631.04" HC_abs="9.79" PMx_abs="24.68" NOx_abs="133.32" fuel_abs="123071.82" electricity_abs="0.00"/>
    </tripinfo>
    <tripinfo id="flow_z2.10" depart="17.00" departLane="-E18_0" departPos="5.10" departSpeed="9.76" departDelay="0.34" arrival="206.00" arrivalLane="-E15_0" arrivalPos="479.20" arrivalSpeed="12.31" duration="189.00" routeLength="1988.38" waitingTime="7.00" waitingCount="1" stopTime="0.00" timeLoss="39.60" rerouteNo="0" devices="tripinfo_flow_z2.10 emissions_flow_z2.10" vType="Car" speedFactor="0.97" vaporized="">
        <emissions CO_abs="2296.78" CO2_abs="429309.24" HC_abs="15.31" PMx_abs="40.84" NOx_abs="148.39" fuel_abs="139176.37" electricity_abs="0.00"/>
    </tripinfo>
    <tripinfo id="flow_z2.8" depart="14.00" departLane="-E18_0" departPos="5.10" departSpeed="11.12" departDelay="0.67" arrival="207.00" arrivalLane="-E15_1" arrivalPos="479.20" arrivalSpeed="13.46" duration="193.00" routeLength="1984.04" waitingTime="4.00" waitingCount="1" stopTime="0.00" timeLoss="49.68" rerouteNo="0" devices="tripinfo_flow_z2.8 emissions_flow_z2.8" vType="Car" speedFactor="1.01" vaporized="">
        <emissions CO_abs="2357.97" CO2_abs="434422.61" HC_abs="15.73" PMx_abs="41.98" NOx_abs="150.56" fuel_abs="140833.97" electricity_abs="0.00"/>
    </tripinfo>
    <tripinfo id="flow_z2.7" depart="12.00" departLane="-E18_0" departPos="5.10" departSpeed="9.59" departDelay="0.34" arrival="208.00" arrivalLane="-E15_0" arrivalPos="479.20" arrivalSpeed="11.98" duration="196.00" routeLength="1984.04" waitingTime="5.00" waitingCount="1" stopTime="0.00" timeLoss="40.70" rerouteNo="0" devices="tripinfo_flow_z2.7 emissions_flow_z2.7" vType="Car" speedFactor="0.93" vaporized="">
        <emissions CO_abs="2080.93" CO2_abs="422250.29" HC_abs="13.88" PMx_abs="40.89" NOx_abs="145.45" fuel_abs="136888.07" electricity_abs="0.00"/>
    </tripinfo>
    <tripinfo id="49" depart="98.00" departLane="E7_0" departPos="5.10" departSpeed="0.00" departDelay="0.00" arrival="209.00" arrivalLane="E34_0" arrivalPos="266.06" arrivalSpeed="9.98" duration="111.00" routeLength="1101.24" waitingTime="0.00" waitingCount="0" stopTime="0.00" timeLoss="10.96" rerouteNo="0" devices="tripinfo_49 emissions_49" vType="Car" speedFactor="0.81" vaporized="">
        <emissions CO_abs="870.45" CO2_abs="222010.26" HC_abs="5.81" PMx_abs="22.73" NOx_abs="75.57" fuel_abs="71972.99" electricity_abs="0.00"/>
    </tripinfo>
    <tripinfo id="flow_z3.12" depart="21.00" departLane="-E28_1" departPos="5.10" departSpeed="8.33" departDelay="1.01" arrival="210.00" arrivalLane="-E29_1" arrivalPos="266.06" arrivalSpeed="12.56" duration="189.00" routeLength="1186.43" waitingTime="55.00" waitingCount="1" stopTime="0.00" timeLoss="96.10" rerouteNo="0" devices="tripinfo_flow_z3.12 emissions_flow_z3.12" vType="Car" speedFactor="0.94" vaporized="">
        <emissions CO_abs="1290.11" CO2_abs="366072.97" HC_abs="8.57" PMx_abs="22.74" NOx_abs="127.06" fuel_abs="118676.44" electricity_abs="0.00"/>
    </tripinfo>
    <tripinfo id="flow_z3.10" depart="17.00" departLane="-E28_1" departPos="5.10" departSpeed="7.25" departDelay="0.34" arrival="215.00" arrivalLane="-E29_0" arrivalPos="266.06" arrivalSpeed="8.33" duration="198.00" routeLength="1186.43" waitingTime="55.00" waitingCount="1" stopTime="0.00" timeLoss="113.17" rerouteNo="0" devices="tripinfo_flow_z3.10 emissions_flow_z3.10" vType="Car" speedFactor="1.02" vaporized="">
        <emissions CO_abs="826.30" CO2_abs="376928.83" HC_abs="5.53" PMx_abs="29.92" NOx_abs="136.76" fuel_abs="122196.71" electricity_abs="0.00"/>
    </tripinfo>
    <tripinfo id="flow_z3.26" depart="49.00" departLane="-E28_1" departPos="5.10" departSpeed="5.54" departDelay="5.68" arrival="215.00" arrivalLane="-E29_1" arrivalPos="266.06" arrivalSpeed="11.55" duration="166.00" routeLength="1186.43" waitingTime="36.00" waitingCount="1" stopTime="0.00" timeLoss="66.81" rerouteNo="0" devices="tripinfo_flow_z3.26 emissions_flow_z3.26" vType="Car" speedFactor="0.88" vaporized="">
        <emissions CO_abs="1245.36" CO2_abs="336765.10" HC_abs="8.28" PMx_abs="24.40" NOx_abs="116.42" fuel_abs="109175.20" electricity_abs="0.00"/>
    </tripinfo>
    <tripinfo id="41" depart="82.00" departLane="E14_0" departPos="5.10" departSpeed="0.00" departDelay="0.00" arrival="219.00" arrivalLane="E37_0" arrivalPos="266.06" arrivalSpeed="11.85" duration="137.00" routeLength="1537.42" waitingTime="0.00" waitingCount="0" stopTime="0.00" timeLoss="17.45" rerouteNo="0" devices="tripinfo_41 emissions_41" vType="Car" speedFactor="0.94" vaporized="">
        <emissions CO_abs="1619.91" CO2_abs="313561.33" HC_abs="10.82" PMx_abs="32.35" NOx_abs="107.05" fuel_abs="101652.42" electricity_abs="0.00"/>
    </tripinfo>
    <tripinfo id="flow_z3.25" depart="47.00" departLane="-E28_1" departPos="5.10" departSpeed="6.10" departDelay="5.35" arrival="221.00" arrivalLane="-E29_0" arrivalPos="266.06" arrivalSpeed="11.97" duration="174.00" routeLength="1186.43" waitingTime="35.00" waitingCount="1" stopTime="0.00" timeLoss="73.17" rerouteNo="0" devices="tripinfo_flow_z3.25 emissions_flow_z3.25" vType="Car" speedFactor="0.87" vaporized="">
        <emissions CO_abs="1228.74" CO2_abs="357344.60" HC_abs="8.16" PMx_abs="24.89" NOx_abs="121.61" fuel_abs="115846.64" electricity_abs="0.00"/>
    </tripinfo>