<?xml version="1.0" encoding="UTF-8"?>

<!-- generated on 2026-05-30T16:41:26.097340+00:00 by Eclipse SUMO sumo 1.26.0
<sumoConfiguration xmlns:xsi="http://www.w3.org/2001/XMLSchema-instance" xsi:noNamespaceSchemaLocation="http://sumo.dlr.de/xsd/sumoConfiguration.xsd">

    <input>
        <net-file value="manhattan.net.xml"/>
        <route-files value="routes.rou.xml,background.rou.xml"/>
        <additional-files value="mosaic_types.add.xml"/>
    </input>

    <output>
        <tripinfo-output value="/home/netsim/opt/tpnpr/tripinfo.xml"/>
    </output>

    <time>
        <begin value="0"/>
        <end value="3600"/>
        <step-length value="1.00"/>
    </time>

    <processing>
        <ignore-route-errors value="true"/>
        <time-to-teleport value="0"/>
    </processing>

    <report>
        <verbose value="true"/>
        <no-step-log value="true"/>
    </report>

    <emissions>
        <device.emissions.probability value="1.0"/>
    </emissions>

    <traci_server>
        <remote-port value="46383"/>
    </traci_server>

    <random_number>
        <seed value="100000"/>
    </random_number>

</sumoConfiguration>
-->

<tripinfos xmlns:xsi="http://www.w3.org/2001/XMLSchema-instance" xsi:noNamespaceSchemaLocation="http://sumo.dlr.de/xsd/tripinfo_file.xsd">
    <tripinfo id="13" depart="26.00" departLane="-E15_0" departPos="5.10" departSpeed="0.00" departDelay="0.00" arrival="70.00" arrivalLane="-E15_0" arrivalPos="479.20" arrivalSpeed="11.45" duration="44.00" routeLength="474.10" waitingTime="0.00" waitingCount="0" stopTime="0.00" timeLoss="5.02" rerouteNo="0" devices="tripinfo_13 emissions_13" vType="Car" speedFactor="0.88" vaporized="">
        <emissions CO_abs="438.37" CO2_abs="93609.03" HC_abs="2.92" PMx_abs="8.86" NOx_abs="31.35" fuel_abs="30346.75" electricity_abs="0.00"/>
    </tripinfo>
    <tripinfo id="flow_z3.1" depart="6.00" departLane="-E28_1" departPos="5.10" departSpeed="16.11" departDelay="0.00" arrival="87.00" arrivalLane="-E29_0" arrivalPos="266.06" arrivalSpeed="15.56" duration="81.00" routeLength="1186.43" waitingTime="0.00" waitingCount="0" stopTime="0.00" timeLoss="5.66" rerouteNo="0" devices="tripinfo_flow_z3.1 emissions_flow_z3.1" vType="Car" speedFactor="1.16" vaporized="">
        <emissions CO_abs="1468.81" CO2_abs="198800.64" HC_abs="9.86" PMx_abs="26.59" NOx_abs="72.53" fuel_abs="64448.68" electricity_abs="0.00"/>
    </tripinfo>
    <tripinfo id="22" depart="44.00" departLane="-E14_0" departPos="5.10" departSpeed="0.00" departDelay="0.00" arrival="98.00" arrivalLane="-E25_0" arrivalPos="279.20" arrivalSpeed="10.71" duration="54.00" routeLength="574.10" waitingTime="0.00" waitingCount="0" stopTime="0.00" timeLoss="5.58" rerouteNo="0" devices="tripinfo_22 emissions_22" vType="Car" speedFactor="0.85" vaporized="">
        <emissions CO_abs="450.29" CO2_abs="110333.76" HC_abs="3.01" PMx_abs="11.75" NOx_abs="37.47" fuel_abs="35768.80" electricity_abs="0.00"/>
    </tripinfo>
    <tripinfo id="flow_z3.0" depart="0.00" departLane="-E28_1" departPos="5.10" departSpeed="12.68" departDelay="0.00" arrival="104.00" arrivalLane="-E29_0" arrivalPos="266.06" arrivalSpeed="12.01" duration="104.00" routeLength="1186.43" waitingTime="0.00" waitingCount="0" stopTime="0.00" timeLoss="8.13" rerouteNo="0" devices="tripinfo_flow_z3.0 emissions_flow_z3.0" vType="Car" speedFactor="0.91" vaporized="">
        <emissions CO_abs="1001.65" CO2_abs="197796.31" HC_abs="6.70" PMx_abs="22.77" NOx_abs="69.43" fuel_abs="64123.21" electricity_abs="0.00"/>
    </tripinfo>
    <tripinfo id="flow_z3.2" depart="12.00" departLane="-E28_1" departPos="5.10" departSpeed="13.74" departDelay="0.00" arrival="108.00" arrivalLane="-E29_0" arrivalPos="266.06" arrivalSpeed="12.67" duration="96.00" routeLength="1186.43" waitingTime="0.00" waitingCount="0" stopTime="0.00" timeLoss="7.57" rerouteNo="0" devices="tripinfo_flow_z3.2 emissions_flow_z3.2" vType="Car" speedFactor="0.99" vaporized="">
        <emissions CO_abs="1094.09" CO2_abs="196079.13" HC_abs="7.34" PMx_abs="24.87" NOx_abs="69.91" fuel_abs="63566.56" electricity_abs="0.00"/>
    </tripinfo>
    <tripinfo id="12" depart="24.00" departLane="E6_0" departPos="5.10" departSpeed="0.00" departDelay="0.00" arrival="128.00" arrivalLane="-E32_0" arrivalPos="266.06" arrivalSpeed="12.53" duration="104.00" routeLength="1239.52" waitingTime="0.00" waitingCount="0" stopTime="0.00" timeLoss="10.89" rerouteNo="0" devices="tripinfo_12 emissions_12" vType="Car" speedFactor="0.97" vaporized="">
        <emissions CO_abs="1229.08" CO2_abs="227987.59" HC_abs="8.22" PMx_abs="25.50" NOx_abs="79.47" fuel_abs="73910.68" electricity_abs="0.00"/>
    </tripinfo>
    <tripinfo id="21" depart="42.00" departLane="-E25_0" departPos="5.10" departSpeed="0.00" departDelay="0.00" arrival="132.00" arrivalLane="-E3_0" arrivalPos="483.20" arrivalSpeed="12.73" duration="90.00" routeLength="1079.36" waitingTime="0.00" waitingCount="0" stopTime="0.00" timeLoss="7.84" rerouteNo="0" devices="tripinfo_21 emissions_21" vType="Car" speedFactor="0.96" vaporized="">
        <emissions CO_abs="1058.13" CO2_abs="195625.13" HC_abs="7.08" PMx_abs="22.25" NOx_abs="68.08" fuel_abs="63419.17" electricity_abs="0.00"/>
    </tripinfo>
    <tripinfo id="30" depart="60.00" departLane="E9_0" departPos="5.10" departSpeed="0.00" departDelay="0.00" arrival="133.00" arrivalLane="E19_0" arrivalPos="283.20" arrivalSpeed="14.72" duration="73.00" routeLength="878.10" waitingTime="4.00" waitingCount="1" stopTime="0.00" timeLoss="17.25" rerouteNo="0" devices="tripinfo_30 emissions_30" vType="Car" speedFactor="1.13" vaporized="">
        <emissions CO_abs="1303.95" CO2_abs="206350.43" HC_abs="8.72" PMx_abs="20.84" NOx_abs="71.74" fuel_abs="66895.90" electricity_abs="0.00"/>
    </tripinfo>
    <tripinfo id="4" depart="8.00" departLane="-E39_0" departPos="5.10" departSpeed="0.00" departDelay="0.00" arrival="146.00" arrivalLane="-E10_0" arrivalPos="479.20" arrivalSpeed="11.76" duration="138.00" routeLength="1552.66" waitingTime="0.00" waitingCount="0" stopTime="0.00" timeLoss="13.04" rerouteNo="0" devices="tripinfo_4 emissions_4" vType="Car" speedFactor="0.90" vaporized="">
        <emissions CO_abs="1402.68" CO2_abs="293846.91" HC_abs="9.38" PMx_abs="32.94" NOx_abs="101.68" fuel_abs="95261.55" electricity_abs="0.00"/>
    </tripinfo>
    <tripinfo id="1" depart="2.00" departLane="-E29_0" departPos="5.10" departSpeed="0.00" departDelay="0.00" arrival="153.00" arrivalLane="-E24_0" arrivalPos="283.20" arrivalSpeed="14.02" duration="151.00" routeLength="1942.97" waitingTime="0.00" waitingCount="0" stopTime="0.00" timeLoss="15.29" rerouteNo="0" devices="tripinfo_1 emissions_1" vType="Car" speedFactor="1.04" vaporized="">
        <emissions CO_abs="2227.63" CO2_abs="365231.72" HC_abs="14.93" PMx_abs="42.78" NOx_abs="128.44" fuel_abs="118403.40" electricity_abs="0.00"/>
    </tripinfo>
    <tripinfo id="48" depart="96.00" departLane="E9_0" departPos="5.10" departSpeed="0.00" departDelay="0.00" arrival="158.00" arrivalLane="E10_0" arrivalPos="479.20" arrivalSpeed="13.72" duration="62.00" routeLength="772.65" waitingTime="0.00" waitingCount="0" stopTime="0.00" timeLoss="7.42" rerouteNo="0" devices="tripinfo_48 emissions_48" vType="Car" speedFactor="1.03" vaporized="">
        <emissions CO_abs="1080.04" CO2_abs="170932.63" HC_abs="7.20" PMx_abs="16.53" NOx_abs="58.50" fuel_abs="55413.89" electricity_abs="0.00"/>
    </tripinfo>
    <tripinfo id="0" depart="0.00" departLane="E19_0" departPos="5.10" departSpeed="0.00" departDelay="0.00" arrival="161.00" arrivalLane="-E10_0" arrivalPos="479.20" arrivalSpeed="13.49" duration="161.00" routeLength="1889.99" waitingTime="2.00" waitingCount="1" stopTime="0.00" timeLoss="20.00" rerouteNo="0" devices="tripinfo_0 emissions_0" vType="Car" speedFactor="0.99" vaporized="">
        <emissions CO_abs="2220.92" CO2_abs="394700.36" HC_abs="14.83" PMx_abs="40.99" NOx_abs="136.34" fuel_abs="127956.55" electricity_abs="0.00"/>
    </tripinfo>
    <tripinfo id="23" depart="46.00" departLane="-E16_0" departPos="5.10" departSpeed="0.00" departDelay="0.00" arrival="162.00" arrivalLane="-E29_0" arrivalPos="266.06" arrivalSpeed="14.14" duration="116.00" routeLength="1384.98" waitingTime="1.00" waitingCount="1" stopTime="0.00" timeLoss="17.88" rerouteNo="0" devices="tripinfo_23 emissions_23" vType="Car" speedFactor="1.05" vaporized="">
        <emissions CO_abs="1811.57" CO2_abs="297862.89" HC_abs="12.10" PMx_abs="30.32" NOx_abs="103.29" fuel_abs="96563.08" electricity_abs="0.00"/>
    </tripinfo>
    <tripinfo id="24" depart="48.00" departLane="E18_0" departPos="5.10" departSpeed="0.00" departDelay="0.00" arrival="165.00" arrivalLane="-E35_1" arrivalPos="266.06" arrivalSpeed="14.35" duration="117.00" routeLength="1550.18" waitingTime="0.00" waitingCount="0" stopTime="0.00" timeLoss="13.39" rerouteNo="0" devices="tripinfo_24 emissions_24" vType="Car" speedFactor="1.10" vaporized="">
        <emissions CO_abs="2217.11" CO2_abs="328421.44" HC_abs="14.82" PMx_abs="35.22" NOx_abs="115.15" fuel_abs="106469.69" electricity_abs="0.00"/>
    </tripinfo>
    <tripinfo id="flow_z1.0" depart="0.00" departLane="-E1_0" departPos="5.10" departSpeed="13.81" departDelay="0.00" arrival="168.00" arrivalLane="E19_0" arrivalPos="283.20" arrivalSpeed="13.47" duration="168.00" routeLength="2181.19" waitingTime="0.00" waitingCount="0" stopTime="0.00" timeLoss="8.90" rerouteNo="0" devices="tripinfo_flow_z1.0 emissions_flow_z1.0" vType="Car" speedFactor="0.99" vaporized="">
        <emissions CO_abs="1996.48" CO2_abs="346359.61" HC_abs="13.42" PMx_abs="46.53" NOx_abs="125.03" fuel_abs="112285.85" electricity_abs="0.00"/>
    </tripinfo>
    <tripinfo id="flow_z1.2" depart="12.00" departLane="-E1_0" departPos="5.10" departSpeed="15.85" departDelay="0.00" arrival="169.00" arrivalLane="E19_1" arrivalPos="283.20" arrivalSpeed="15.17" duration="157.00" routeLength="2181.19" waitingTime="0.00" waitingCount="0" stopTime="0.00" timeLoss="18.29" rerouteNo="0" devices="tripinfo_flow_z1.2 emissions_flow_z1.2" vType="Car" speedFactor="1.14" vaporized="">
        <emissions CO_abs="2414.04" CO2_abs="351031.78" HC_abs="16.22" PMx_abs="46.34" NOx_abs="127.69" fuel_abs="113800.22" electricity_abs="0.00"/>
    </tripinfo>
    <tripinfo id="16" depart="32.00" departLane="E10_0" departPos="5.10" departSpeed="0.00" departDelay="0.00" arrival="177.00" arrivalLane="E7_0" arrivalPos="466.06" arrivalSpeed="13.83" duration="145.00" routeLength="1801.77" waitingTime="1.00" waitingCount="1" stopTime="0.00" timeLoss="20.42" rerouteNo="0" devices="tripinfo_16 emissions_16" vType="Car" speedFactor="1.06" vaporized="">
        <emissions CO_abs="2348.69" CO2_abs="369342.38" HC_abs="15.69" PMx_abs="37.91" NOx_abs="128.47" fuel_abs="119735.69" electricity_abs="0.00"/>
    </tripinfo>
    <tripinfo id="flow_z3.3" depart="18.00" departLane="-E28_1" departPos="5.10" departSpeed="13.81" departDelay="0.00" arrival="177.00" arrivalLane="-E29_0" arrivalPos="266.06" arrivalSpeed="13.35" duration="159.00" routeLength="1186.43" waitingTime="59.00" waitingCount="1" stopTime="0.00" timeLoss="71.42" rerouteNo="0" devices="tripinfo_flow_z3.3 emissions_flow_z3.3" vType="Car" speedFactor="0.99" vaporized="">
        <emissions CO_abs="1271.13" CO2_abs="311956.15" HC_abs="8.50" PMx_abs="24.24" NOx_abs="113.37" fuel_abs="101132.80" electricity_abs="0.00"/>
    </tripinfo>
    <tripinfo id="flow_z3.6" depart="36.00" departLane="-E28_1" departPos="5.10" departSpeed="15.30" departDelay="0.00" arrival="178.00" arrivalLane="-E29_1" arrivalPos="266.06" arrivalSpeed="15.14" duration="142.00" routeLength="1186.43" waitingTime="43.00" waitingCount="2" stopTime="0.00" timeLoss="62.09" rerouteNo="0" devices="tripinfo_flow_z3.6 emissions_flow_z3.6" vType="Car" speedFactor="1.10" vaporized="">
        <emissions CO_abs="1653.50" CO2_abs="316062.38" HC_abs="11.02" PMx_abs="24.60" NOx_abs="114.65" fuel_abs="102463.49" electricity_abs="0.00"/>
    </tripinfo>
    <tripinfo id="39" depart="80.00" departLane="-E28_0" departPos="5.10" departSpeed="0.00" departDelay="2.00" arrival="180.00" arrivalLane="-E26_1" arrivalPos="265.43" arrivalSpeed="8.33" duration="100.00" routeLength="860.33" waitingTime="6.00" waitingCount="1" stopTime="0.00" timeLoss="51.02" rerouteNo="0" devices="tripinfo_39 emissions_39" vType="Car" speedFactor="1.27" vaporized="">
        <emissions CO_abs="1139.67" CO2_abs="248486.44" HC_abs="7.58" PMx_abs="21.68" NOx_abs="87.13" fuel_abs="80556.15" electricity_abs="0.00"/>
    </tripinfo>
    <tripinfo id="flow_z3.4" depart="24.00" departLane="-E28_1" departPos="5.10" departSpeed="13.99" departDelay="0.00" arrival="182.00" arrivalLane="-E29_0" arrivalPos="266.06" arrivalSpeed="13.10" duration="158.00" routeLength="1186.43" waitingTime="54.00" waitingCount="1" stopTime="0.00" timeLoss="71.12" rerouteNo="0" devices="tripinfo_flow_z3.4 emissions_flow_z3.4" vType="Car" speedFactor="1.01" vaporized="">
        <emissions CO_abs="1395.03" CO2_abs="332664.30" HC_abs="9.32" PMx_abs="26.52" NOx_abs="120.18" fuel_abs="107846.10" electricity_abs="0.00"/>
    </tripinfo>
    <tripinfo id="7" depart="14.00" departLane="E19_0" departPos="5.10" departSpeed="0.00" departDelay="0.00" arrival="186.00" arrivalLane="E11_0" arrivalPos="466.06" arrivalSpeed="12.13" duration="172.00" routeLength="1864.55" waitingTime="4.00" waitingCount="1" stopTime="0.00" timeLoss="23.97" rerouteNo="0" devices="tripinfo_7 emissions_7" vType="Car" speedFactor="0.93" vaporized="">
        <emissions CO_abs="1889.31" CO2_abs="390782.70" HC_abs="12.62" PMx_abs="40.76" NOx_abs="134.24" fuel_abs="126686.79" electricity_abs="0.00"/>
    </tripinfo>
    <tripinfo id="11" depart="22.00" departLane="-E33_0" departPos="5.10" departSpeed="0.00" departDelay="0.00" arrival="187.00" arrivalLane="-E2_0" arrivalPos="479.20" arrivalSpeed="13.55" duration="165.00" routeLength="2093.43" waitingTime="0.00" waitingCount="0" stopTime="0.00" timeLoss="16.19" rerouteNo="0" devices="tripinfo_11 emissions_11" vType="Car" speedFactor="1.03" vaporized="">
        <emissions CO_abs="2428.32" CO2_abs="392783.28" HC_abs="16.23" PMx_abs="43.67" NOx_abs="137.92" fuel_abs="127335.19" electricity_abs="0.00"/>
    </tripinfo>
    <tripinfo id="flow_z2.2" depart="12.00" departLane="-E18_0" departPos="5.10" departSpeed="13.97" departDelay="0.00" arrival="193.00" arrivalLane="-E15_0" arrivalPos="479.20" arrivalSpeed="13.81" duration="181.00" routeLength="1988.38" waitingTime="21.00" waitingCount="1" stopTime="0.00" timeLoss="36.86" rerouteNo="0" devices="tripinfo_flow_z2.2 emissions_flow_z2.2" vType="Car" speedFactor="1.01" vaporized="">
        <emissions CO_abs="2057.97" CO2_abs="379845.07" HC_abs="13.78" PMx_abs="40.07" NOx_abs="135.05" fuel_abs="123141.17" electricity_abs="0.00"/>
    </tripinfo>
    <tripinfo id="18" depart="36.00" departLane="E32_0" departPos="5.10" departSpeed="0.00" departDelay="0.00" arrival="196.00" arrivalLane="E17_0" arrivalPos="465.43" arrivalSpeed="12.46" duration="160.00" routeLength="1839.24" waitingTime="0.00" waitingCount="0" stopTime="0.00" timeLoss="16.73" rerouteNo="0" devices="tripinfo_18 emissions_18" vType="Car" speedFactor="0.95" vaporized="">
        <emissions CO_abs="2152.54" CO2_abs="378663.74" HC_abs="14.34" PMx_abs="37.81" NOx_abs="130.55" fuel_abs="122757.72" electricity_abs="0.00"/>
    </tripinfo>
    <tripinfo id="54" depart="108.00" departLane="-E6_0" departPos="5.10" departSpeed="0.00" departDelay="0.00" arrival="196.00" arrivalLane="E6_1" arrivalPos="466.06" arrivalSpeed="5.76" duration="88.00" routeLength="1043.03" waitingTime="0.00" waitingCount="0" stopTime="0.00" timeLoss="17.82" rerouteNo="0" devices="tripinfo_54 emissions_54" vType="Car" speedFactor="1.10" vaporized="">
        <emissions CO_abs="1509.44" CO2_abs="239878.66" HC_abs="10.08" PMx_abs="23.20" NOx_abs="82.47" fuel_abs="77765.22" electricity_abs="0.00"/>
    </tripinfo>
    <tripinfo id="3" depart="6.00" departLane="E37_0" departPos="5.10" departSpeed="0.00" departDelay="0.00" arrival="201.00" arrivalLane="-E14_1" arrivalPos="279.20" arrivalSpeed="14.15" duration="195.00" routeLength="1837.99" waitingTime="48.00" waitingCount="1" stopTime="0.00" timeLoss="68.01" rerouteNo="0" devices="tripinfo_3 emissions_3" vType="Car" speedFactor="1.06" vaporized="">
        <emissions CO_abs="2399.80" CO2_abs="464227.77" HC_abs="16.06" PMx_abs="42.74" NOx_abs="165.82" fuel_abs="150496.96" electricity_abs="0.00"/>
    </tripinfo>
    <tripinfo id="flow_z3.5" depart="30.00" departLane="-E28_1" departPos="5.10" departSpeed="14.75" departDelay="0.00" arrival="205.00" arrivalLane="-E29_0" arrivalPos="266.06" arrivalSpeed="8.33" duration="175.00" routeLength="1186.43" waitingTime="50.00" waitingCount="1" stopTime="0.00" timeLoss="92.25" rerouteNo="0" devices="tripinfo_flow_z3.5 emissions_flow_z3.5" vType="Car" speedFactor="1.06" vaporized="">
        <emissions CO_abs="931.00" CO2_abs="330380.95" HC_abs="6.24" PMx_abs="28.11" NOx_abs="121.08" fuel_abs="107106.37" electricity_abs="0.00"/>
    </tripinfo>
    <tripinfo id="flow_z3.8" depart="48.00" departLane="-E28_1" departPos="5.10" departSpeed="14.87" departDelay="0.00" arrival="207.00" arrivalLane="-E29_1" arrivalPos="266.06" arrivalSpeed="14.13" duration="159.00" routeLength="1186.43" waitingTime="30.00" waitingCount="2" stopTime="0.00" timeLoss="77.98" rerouteNo="0" devices="tripinfo_flow_z3.8 emissions_flow_z3.8" vType="Car" speedFactor="1.07" vaporized="">
        <emissions CO_abs="1477.06" CO2_abs="344125.80" HC_abs="9.82" PMx_abs="24.13" NOx_abs="118.55" fuel_abs="111561.16" electricity_abs="0.00"/>
    </tripinfo>
    <tripinfo id="49" depart="98.00" departLane="E7_0" departPos="5.10" departSpeed="0.00" departDelay="0.00" arrival="209.00" arrivalLane="E34_0" arrivalPos="266.06" arrivalSpeed="10.90" duration="111.00" routeLength="1101.24" waitingTime="0.00" waitingCount="0" stopTime="0.00" timeLoss="11.20" rerouteNo="0" devices="tripinfo_49 emissions_49" vType="Car" speedFactor="0.81" vaporized="">
        <emissions CO_abs="821.63" CO2_abs="213644.53" HC_abs="5.49" PMx_abs="22.05" NOx_abs="72.77" fuel_abs="69260.94" electricity_abs="0.00"/>
    </tripinfo>
    <tripinfo id="flow_z3.7" depart="42.00" departLane="-E28_1" departPos="5.10" departSpeed="12.49" departDelay="0.00" arrival="210.00" arrivalLane="-E29_0" arrivalPos="266.06" arrivalSpeed="8.33" duration="168.00" routeLength="1186.43" waitingTime="37.00" waitingCount="1" stopTime="0.00" timeLoss="70.68" rerouteNo="0" devices="tripinfo_flow_z3.7 emissions_flow_z3.7" vType="Car" speedFactor="0.90" vaporized="">
        <emissions CO_abs="785.27" CO2_abs="310855.07" HC_abs="5.26" PMx_abs="27.73" NOx_abs="112.95" fuel_abs="100776.22" electricity_abs="0.00"/>
    </tripinfo>
    <tripinfo id="flow_z2.1" depart="6.00" departLane="-E18_0" departPos="5.10" departSpeed="14.78" departDelay="0.00" arrival="214.00" arrivalLane="-E15_0" arrivalPos="479.20" arrivalSpeed="8.33" duration="208.00" routeLength="1988.38" waitingTime="25.00" waitingCount="1" stopTime="0.00" timeLoss="71.94" rerouteNo="0" devices="tripinfo_flow_z2.1 emissions_flow_z2.1" vType="Car" speedFactor="1.06" vaporized="">
        <emissions CO_abs="1815.55" CO2_abs="429197.48" HC_abs="12.17" PMx_abs="44.98" NOx_abs="154.38" fuel_abs="139141.17" electricity_abs="0.00"/>
    </tripinfo>
    <tripinfo id="68" depart="136.00" departLane="-E13_0" departPos="5.10" departSpeed="0.00" departDelay="0.00" arrival="215.00" arrivalLane="E27_1" arrivalPos="279.20" arrivalSpeed="8.33" duration="79.00" routeLength="772.65" waitingTime="0.00" waitingCount="0" stopTime="0.00" timeLoss="23.45" rerouteNo="0" devices="tripinfo_68 emissions_68" vType="Car" speedFactor="1.01" vaporized="">
        <emissions CO_abs="584.28" CO2_abs="166852.50" HC_abs="3.92" PMx_abs="18.36" NOx_abs="58.51" fuel_abs="54091.70" electricity_abs="0.00"/>
    </tripinfo>
    <tripinfo id="flow_z2.0" depart="0.00" departLane="-E18_0" departPos="5.10" departSpeed="12.79" departDelay="0.00" arrival="216.00" arrivalLane="-E15_0" arrivalPos="479.20" arrivalSpeed="12.21" duration="216.00" routeLength="1988.38" waitingTime="24.00" waitingCount="1" stopTime="0.00" timeLoss="57.73" rerouteNo="0" devices="tripinfo_flow_z2.0 emissions_flow_z2.0" vType="Car" speedFactor="0.92" vaporized="">
        <emissions CO_abs="1724.22" CO2_abs="423069.82" HC_abs="11.53" PMx_abs="41.24" NOx_abs="147.54" fuel_abs="137154.29" electricity_abs="0.00"/>
    </tripinfo>
    <tripinfo id="flow_z2.3" depart="18.00" departLane="-E18_0" departPos="5.10" departSpeed="14.52" departDelay="0.00" arrival="216.00" arrivalLane="-E15_1" arrivalPos="479.20" arrivalSpeed="8.33" duration="198.00" routeLength="1984.04" waitingTime="20.00" waitingCount="1" stopTime="0.00" timeLoss="59.49" rerouteNo="0" devices="tripinfo_flow_z2.3 emissions_flow_z2.3" vType="Car" speedFactor="1.05" vaporized="">
        <emissions CO_abs="1786.03" CO2_abs="412296.28" HC_abs="11.99" PMx_abs="45.60" NOx_abs="148.58" fuel_abs="133661.93" electricity_abs="0.00"/>
    </tripinfo>
    <tripinfo id="flow_z3.13" depart="78.00" departLane="-E28_1" departPos="5.10" departSpeed="12.47" departDelay="0.00" arrival="217.00" arrivalLane="-E29_0" arrivalPos="266.06" arrivalSpeed="11.20" duration="139.00" routeLength="1186.43" waitingTime="7.00" waitingCount="1" stopTime="0.00" timeLoss="42.22" rerouteNo="0" devices="tripinfo_flow_z3.13 emissions_flow_z3.13" vType="Car" speedFactor="0.90" vaporized="">
        <emissions CO_abs="957.18" CO2_abs="266068.25" HC_abs="6.38" PMx_abs="23.84" NOx_abs="91.09" fuel_abs="86256.13" electricity_abs="0.00"/>
    </tripinfo>
    <tripinfo id="41" depart="82.00" departLane="E14_0" departPos="5.10" departSpeed="0.00" departDelay="0.00" arrival="219.00" arrivalLane="E37_1" arrivalPos="266.06" arrivalSpeed="12.16" duration="137.00" routeLength="1537.42" waitingTime="0.00" waitingCount="0" stopTime="0.00" timeLoss="17.80" rerouteNo="0" devices="tripinfo_41 emissions_41" vType="Car" speedFactor="0.94" vaporized="">
        <emissions CO_abs="1563.52" CO2_abs="311596.37" HC_abs="10.45" PMx_abs="32.67" NOx_abs="105.97" fuel_abs="101015.41" electricity_abs="0.00"/>
    </tripinfo>
    <tripinfo id="flow_z3.11" depart="66.00" departLane="-E28_1" departPos="5.10" departSpeed="15.34" departDelay="0.00" arrival="219.00" arrivalLane="-E29_0" arrivalPos="266.06" arrivalSpeed="15.00" duration="153.00" routeLength="1186.43" waitingTime="28.00" waitingCount="3" stopTime="0.00" timeLoss="73.78" rerouteNo="0" devices="tripinfo_flow_z3.11 emissions_flow_z3.11" vType="Car" speedFactor="1.10" vaporized="">
        <emissions CO_abs="1689.92" CO2_abs="345049.31" HC_abs="11.22" PMx_abs="24.67" NOx_abs="120.70" fuel_abs="111860.44" electricity_abs="0.00"/>
    </tripinfo>
    <tripinfo id="flow_z2.4" depart="24.00" departLane="-E18_0" departPos="5.10" departSpeed="14.64" departDelay="0.00" arrival="221.00" arrivalLane="-E15_1" arrivalPos="479.20" arrivalSpeed="9.75" duration="197.00" routeLength="1988.38" waitingTime="12.00" waitingCount="1" stopTime="0.00" timeLoss="59.51" rerouteNo="0" devices="tripinfo_flow_z2.4 emissions_flow_z2.4" vType="Car" speedFactor="1.05" vaporized="">
        <emissions CO_abs="2036.77" CO2_abs="424535.79" HC_abs="13.64" PMx_abs="43.04" NOx_abs="146.42" fuel_abs="137629.11" electricity_abs="0.00"/>
    </tripinfo>
    <tripinfo id="flow_z3.9" depart="54.00" departLane="-E28_1" departPos="5.10" departSpeed="16.79" departDelay="0.00" arrival="221.00" arrivalLane="-E29_1" arrivalPos="266.06" arrivalSpeed="13.24" duration="167.00" routeLength="1186.43" waitingTime="35.00" waitingCount="3" stopTime="0.00" timeLoss="94.82" rerouteNo="0" devices="tripinfo_flow_z3.9 emissions_flow_z3.9" vType="Car" speedFactor="1.21" vaporized="">
        <emissions CO_abs="1771.13" CO2_abs="393660.32" HC_abs="11.76" PMx_abs="25.60" NOx_abs="134.93" fuel_abs="127619.32" electricity_abs="0.00"/>
    </tripinfo>
    <tripinfo id="flow_z2.5" depart="30.00" departLane="-E18_0" departPos="5.10" departSpeed="14.16" departDelay="0.00" arrival="223.00" arrivalLane="-E15_1" arrivalPos="479.20" arrivalSpeed="10.83" duration="193.00" routeLength="1988.38" waitingTime="6.00" waitingCount="1" stopTime="0.00" timeLoss="50.66" rerouteNo="0" devices="tripinfo_flow_z2.5 emissions_flow_z2.5" vType="Car" speedFactor="1.02" vaporized="">
        <emissions CO_abs="2072.81" CO2_abs="428741.95" HC_abs="13.86" PMx_abs="43.19" NOx_abs="147.19" fuel_abs="138992.64" electricity_abs="0.00"/>
    </tripinfo>
    <tripinfo id="flow_z2.9" depart="54.00" departLane="-E18_0" departPos="5.10" departSpeed="14.96" departDelay="0.00" arrival="223.00" arrivalLane="-E15_0" arrivalPos="479.20" arrivalSpeed="8.08" duration="169.00" routeLength="1984.04" waitingTime="2.00" waitingCount="1" stopTime="0.00" timeLoss="34.86" rerouteNo="0" devices="tripinfo_flow_z2.9 emissions_flow_z2.9" vType="Car" speedFactor="1.08" vaporized="">
        <emissions CO_abs="2276.42" CO2_abs="381004.99" HC_abs="15.22" PMx_abs="40.56" NOx_abs="132.95" fuel_abs="123516.81" electricity_abs="0.00"/>
    </tripinfo>
    <tripinfo id="flow_z2.7" depart="42.00" departLane="-E18_0" departPos="5.10" departSpeed="12.95" departDelay="0.00" arrival="225.00" arrivalLane="-E15_1" arrivalPos="479.20" arrivalSpeed="11.41" duration="183.00" routeLength="1988.38" waitingTime="0.00" waitingCount="0" stopTime="0.00" timeLoss="27.51" rerouteNo="0" devices="tripinfo_flow_z2.7 emissions_flow_z2.7" vType="Car" speedFactor="0.93" vaporized="">
        <emissions CO_abs="1737.69" CO2_abs="373256.07" HC_abs="11.62" PMx_abs="41.15" NOx_abs="129.03" fuel_abs="121005.08" electricity_abs="0.00"/>
    </tripinfo>
    <tripinfo id="flow_z2.8" depart="48.00" departLane="-E18_0" departPos="5.10" departSpeed="14.04" departDelay="0.00" arrival="225.00" arrivalLane="-E15_0" arrivalPos="479.20" arrivalSpeed="10.33" duration="177.00" routeLength="1984.04" waitingTime="3.00" waitingCount="1" stopTime="0.00" timeLoss="33.68" rerouteNo="0" devices="tripinfo_flow_z2.8 emissions_flow_z2.8" vType="Car" speedFactor="1.01" vaporized="">
        <emissions CO_abs="2154.26" CO2_abs="391977.08" HC_abs="14.38" PMx_abs="40.56" NOx_abs="135.35" fuel_abs="127073.82" electricity_abs="0.00"/>
    </tripinfo>
    <tripinfo id="flow_z3.12" depart="72.00" departLane="-E28_1" departPos="5.10" departSpeed="13.10" departDelay="0.00" arrival="226.00" arrivalLane="-E29_0" arrivalPos="266.06" arrivalSpeed="11.94" duration="154.00" routeLength="1186.43" waitingTime="16.00" waitingCount="3" stopTime="0.00" timeLoss="61.54" rerouteNo="0" devices="tripinfo_flow_z3.12 emissions_flow_z3.12" vType="Car" speedFactor="0.94" vaporized="">
        <emissions CO_abs="1220.05" CO2_abs="324584.82" HC_abs="8.11" PMx_abs="24.87" NOx_abs="109.38" fuel_abs="105226.15" electricity_abs="0.00"/>
    </tripinfo>
    <tripinfo id="36" depart="72.00" departLane="E36_0" departPos="5.10" departSpeed="0.00" departDelay="0.00" arrival="227.00" arrivalLane="-E31_0" arrivalPos="279.20" arrivalSpeed="10.33" duration="155.00" routeLength="1572.41" waitingTime="0.00" waitingCount="0" stopTime="0.00" timeLoss="14.51" rerouteNo="0" devices="tripinfo_36 emissions_36" vType="Car" speedFactor="0.83" vaporized="">
        <emissions CO_abs="1294.26" CO2_abs="313672.12" HC_abs="8.64" PMx_abs="32.94" NOx_abs="107.02" fuel_abs="101688.65" electricity_abs="0.00"/>
    </tripinfo>
    <tripinfo id="flow_z1.3" depart="18.00" departLane="-E1_0" departPos="5.10" departSpeed="14.26" departDelay="0.00" arrival="227.00" arrivalLane="E19_0" arrivalPos="283.20" arrivalSpeed="13.91" duration="209.00" routeLength="2181.19" waitingTime="40.00" waitingCount="1" stopTime="0.00" timeLoss="54.37" rerouteNo="0" devices="tripinfo_flow_z1.3 emissions_flow_z1.3" vType="Car" speedFactor="1.03" vaporized="">
        <emissions CO_abs="2319.77" CO2_abs="439527.18" HC_abs="15.56" PMx_abs="46.94" NOx_abs="160.05" fuel_abs="142489.70" electricity_abs="0.00"/>
    </tripinfo>
    <tripinfo id="flow_z2.6" depart="36.00" departLane="-E18_0" departPos="5.10" departSpeed="12.78" departDelay="0.00" arrival="227.00" arrivalLane="-E15_0" arrivalPos="479.20" arrivalSpeed="11.03" duration="191.00" routeLength="1984.04" waitingTime="11.00" waitingCount="1" stopTime="0.00" timeLoss="33.57" rerouteNo="0" devices="tripinfo_flow_z2.6 emissions_flow_z2.6" vType="Car" speedFactor="0.92" vaporized="">
        <emissions CO_abs="1754.21" CO2_abs="392060.17" HC_abs="11.74" PMx_abs="43.11" NOx_abs="137.33" fuel_abs="127101.27" electricity_abs="0.00"/>
    </tripinfo>
    <tripinfo id="flow_z1.7" depart="42.00" departLane="-E1_0" departPos="5.10" departSpeed="15.01" departDelay="0.00" arrival="227.00" arrivalLane="E19_1" arrivalPos="283.20" arrivalSpeed="13.86" duration="185.00" routeLength="2181.19" waitingTime="13.00" waitingCount="1" stopTime="0.00" timeLoss="38.40" rerouteNo="0" devices="tripinfo_flow_z1.7 emissions_flow_z1.7" vType="Car" speedFactor="1.08" vaporized="">
        <emissions CO_abs="2536.48" CO2_abs="412436.94" HC_abs="16.97" PMx_abs="44.80" NOx_abs="147.44" fuel_abs="133706.87" electricity_abs="0.00"/>
    </tripinfo>
    <tripinfo id="flow_z3.10" depart="60.00" departLane="-E28_1" departPos="5.10" departSpeed="14.21" departDelay="0.00" arrival="228.00" arrivalLane="-E29_0" arrivalPos="266.06" arrivalSpeed="14.18" duration="168.00" routeLength="1186.43" waitingTime="28.00" waitingCount="3" stopTime="0.00" timeLoss="81.95" rerouteNo="0" devices="tripinfo_flow_z3.10 emissions_flow_z3.10" vType="Car" speedFactor="1.02" vaporized="">
        <emissions CO_abs="1263.22" CO2_abs="345746.30" HC_abs="8.40" PMx_abs="24.21" NOx_abs="116.77" fuel_abs="112086.36" electricity_abs="0.00"/>
    </tripinfo>